/*--------------------------------*- C++ -*----------------------------------*\
| =========                 |                                                 |
| \\      /  F ield         | OpenFOAM: The Open Source CFD Toolbox           |
|  \\    /   O peration     | Version:  2406                                  |
|   \\  /    A nd           | Website:  www.openfoam.com                      |
|    \\/     M anipulation  |                                                 |
\*---------------------------------------------------------------------------*/
FoamFile
{
    version     2.0;
    format      ascii;
    arch        "LSB;label=32;scalar=64";
    class       volScalarField;
    location    "2500";
    object      T;
}
// * * * * * * * * * * * * * * * * * * * * * * * * * * * * * * * * * * * * * //

dimensions      [0 0 0 0 0 0 0];

internalField   nonuniform List<scalar> 
9200
(
1
1
1
1
1
1
1
1
1
1
1
1
1
1
1
1
1
1
1
1
1
1
1
1
1
1
1
1
1
1
1
1
1
1
1
1
1
1
1
1
1
1
1
1
1
1
1
1
1
1
1
1
1
1
1
1
1
1
1
1
1
1
1
1
1
1
1
1
1
1
1
1
1
1
1
1
1
1
1
1
1
1
1
1
1
1
1
1
1
1
1
1
1
1
1
1
1
1
1
1
1
1
1
1
1
1
1
1
1
1
1
1
1
1
1
1
1
1
1
1
1
1
1
1
1
1
1
1
1
1
1
1
1
1
1
1
1
1
1
1
1
1
1
1
1
1
1
1
1
1
1
1
1
1
1
1
1
1
1
1
1
1
1
1
1
1
1
1
1
1
1
1
1
1
1
1
1
1
1
1
1
1
1
1
1
1
1
1
1
1
1
1
1
1
1
1
1
1
1
1
1
1
1
1
1
1
1
1
1
1
1
1
1
1
1
1
1
1
1
1
1
1
1
1
1
1
1
1
1
1
1
1
1
1
1
1
1
1
1
1
1
1
1
1
1
1
1
1
1
1
1
1
1
1
1
1
1
1
1
1
1
1
1
1
1
1
1
1
1
1
1
1
1
1
1
1
1
1
1
1
1
1
1
1
1
1
1
1
1
1
1
1
1
1
1
1
1
1
1
1
1
1
1
1
1
1
1
1
1
1
1
1
1
1
1
1
1
1
1
1
1
1
1
1
1
1
1
1
1
1
1
1
1
1
1
1
1
1
1
1
1
1
1
1
1
1
1
1
1
1
1
1
1
1
1
1
1
1
1
1
1
1
1
1
1
1
1
1
1
1
1
1
1
1
1
1
1
1
1
1
1
1
1
1
1
1
1
1
1
1
1
1
1
1
1
1
1
1
1
1
1
1
1
1
1
1
1
1
1
1
1
1
1
1
1
1
1
1
1
1
1
1
1
1
1
1
1
1
1
1
1
1
1
1
1
1
1
1
1
1
1
1
1
1
1
1
1
1
1
1
1
1
1
1
1
1
1
1
1
1
1
1
1
1
1
1
1
1
1
1
1
1
1
1
1
1
1
1
1
1
1
1
1
1
1
1
1
1
1
1
1
1
1
1
1
1
1
1
1
1
1
1
1
1
1
1
1
1
1
1
1
1
1
1
1
1
1
1
1
1
1
1
1
1
1
1
1
1
1
1
1
1
1
1
1
1
1
1
1
1
1
1
1
1
1
1
1
1
1
1
1
1
1
1
1
1
1
1
1
1
1
1
1
1
1
1
1
1
1
1
1
1
1
1
1
1
1
1
1
1
1
1
1
1
1
1
1
1
1
1
1
1
1
1
1
1
1
1
1
1
1
1
1
1
1
1
1
1
1
1
1
1
1
1
1
1
1
1
1
1
1
1
1
1
1
1
1
1
1
1
1
1
1
1
1
1
1
1
1
1
1
1
1
1
1
1
1
1
1
1
1
1
1
1
1
1
1
1
1
1
1
1
1
1
1
1
1
1
1
1
1
1
1
1
1
1
1
1
1
1
1
1
1
1
1
1
1
1
1
1
1
1
1
1
1
1
1
1
1
1
1
1
1
1
1
1
1
1
1
1
1
1
1
1
1
1
1
1
1
1
1
1
1
1
1
1
1
1
1
1
1
1
1
1
1
1
1
1
1
1
1
1
1
1
1
1
1
1
1
1
1
1
1
1
1
1
1
1
1
1
1
1
1
1
1
1
1
1
1
1
1
1
1
1
1
1
1
1
1
1
1
1
1
1
1
1
1
1
1
1
1
1
1
1
1
1
1
1
1
1
1
1
1
1
1
1
1
1
1
1
1
1
1
1
1
1
1
1
1
1
1
1
1
1
1
1
1
1
1
1
1
1
1
1
1
1
1
1
1
1
1
1
1
1
1
1
1
1
1
1
1
1
1
1
1
1
1
1
1
1
1
1
1
1
1
1
1
1
1
1
1
1
1
1
1
1
1
1
1
1
1
1
1
1
1
1
1
1
1
1
1
1
1
1
1
1
1
1
1
1
1
1
1
1
1
1
1
1
1
1
1
1
1
1
1
1
1
1
1
1
1
1
1
1
1
1
1
1
1
1
1
1
1
1
1
1
1
1
1
1
1
1
1
1
1
1
1
1
1
1
1
1
1
1
1
1
1
1
1
1
1
1
1
1
1
1
1
1
1
1
1
1
1
1
1
1
1
1
1
1
1
1
1
1
1
1
1
1
1
1
1
1
1
1
1
1
1
1
1
1
1
1
1
1
1
1
1
1
1
1
1
1
1
1
1
1
1
1
1
1
1
1
1
1
1
1
1
1
1
1
1
1
1
1
1
1
1
1
1
1
1
1
1
1
1
1
1
1
1
1
1
1
1
1
1
1
1
1
1
1
1
1
1
1
1
1
1
1
1
1
1
1
1
1
1
1
1
1
1
1
1
1
1
1
1
1
1
1
1
1
1
1
1
1
1
1
1
1
1
1
1
1
1
1
1
1
1
1
1
1
1
1
1
1
1
1
1
1
1
1
1
1
1
1
1
1
1
1
1
1
1
1
1
1
1
1
1
1
1
1
1
1
1
1
1
1
1
1
1
1
1
1
1
1
1
1
1
1
1
1
1
1
1
1
1
1
1
1
1
1
1
1
1
1
1
1
1
1
1
1
1
1
1
1
1
1
1
1
1
1
1
1
1
1
1
1
1
1
1
1
1
1
1
1
1
1
1
1
1
1
1
1
1
1
1
1
1
1
1
1
1
1
1
1
1
1
1
1
1
1
1
1
1
1
1
1
1
1
1
1
1
1
1
1
1
1
1
1
1
1
1
1
1
1
1
1
1
1
1
1
1
1
1
1
1
1
1
1
1
1
1
1
1
1
1
1
1
1
1
1
1
1
1
1
1
1
1
1
1
1
1
1
1
1
1
1
1
1
1
1
1
1
1
1
1
1
1
1
1
1
1
1
1
1
1
1
1
1
1
1
1
1
1
1
1
1
1
1
1
1
1
1
1
1
1
1
1
1
1
1
1
1
1
1
1
1
1
1
1
1
1
1
1
1
1
1
1
1
1
1
1
1
1
1
1
1
1
1
1
1
1
1
1
1
1
1
1
1
1
1
1
1
1
1
1
1
1
1
1
1
1
1
1
1
1
1
1
1
1
1
1
1
1
1
1
1
1
1
1
1
1
1
1
1
1
1
1
1
1
1
1
1
1
1
1
1
1
1
1
1
1
1
1
1
1
1
1
1
1
1
1
1
1
1
1
1
1
1
1
1
1
1
1
1
1
1
1
1
1
1
1
1
1
1
1
1
1
1
1
1
1
1
1
1
1
1
1
1
1
1
1
1
1
1
1
1
1
1
1
1
1
1
1
1
1
1
1
1
1
1
1
1
1
1
1
1
1
1
1
1
1
1
1
1
1
1
1
1
1
1
1
1
1
1
1
1
1
1
1
1
1
1
1
1
1
1
1
1
1
1
1
1
1
1
1
1
1
1
1
1
1
1
1
1
1
1
1
1
1
1
1
1
1
1
1
1
1
1
1
1
1
1
1
1
1
1
1
1
1
1
1
1
1
1
1
1
1
1
1
1
1
1
1
1
1
1
1
1
1
1
1
1
1
1
1
1
1
1
1
1
1
1
1
1
1
1
1
1
1
1
1
1
1
1
1
1
1
1
1
1
1
1
1
1
1
1
1
1
1
1
1
1
1
1
1
1
1
1
1
1
1
1
1
1
1
1
1
1
1
1
1
1
1
1
1
1
1
1
1
1
1
1
1
1
1
1
1
1
1
1
1
1
1
1
1
1
1
1
1
1
1
1
1
1
1
1
1
1
1
1
1
1
1
1
1
1
1
1
1
1
1
1
1
1
1
1
1
1
1
1
1
1
1
1
1
1
1
1
1
1
1
1
1
1
1
1
1
1
1
1
1
1
1
1
1
1
1
1
1
1
1
1
1
1
1
1
1
1
1
1
1
1
1
1
1
1
1
1
1
1
1
1
1
1
1
1
1
1
1
1
1
1
1
1
1
1
1
1
1
1
1
0.99999999
0.99999999
0.99999999
0.99999999
0.99999999
0.99999999
0.99999999
0.99999999
0.99999998
1
1
1
1
1
1
1
1
1
1
1
1
1
1
1
1
1
1
1
1
1
1
1
1
1
1
1
1
1
1
1
1
1
1
1
1
1
1
1
1
1
1
1
1
1
1
1
1
1
1
1
1
1
1
1
1
1
1
1
1
1
1
1
1
1
1
1
1
1
1
1
1
1
1
1
1
1
1
1
1
1
1
1
1
1
1
1
1
1
1
1
1
1
1
1
1
1
1
1
1
1
1
1
1
1
1
1
1
1
1
1
1
1
1
1
1
1
1
1
1
1
1
1
1
1
1
1
1
1
1
1
1
1
1
1
1
1
1
1
1
1
1
1
1
1
1
1
1
1
1
1
1
1
1
1
1
1
1
1
1
1
1
1
1
1
1
1
1
1
1
1
1
1
1
1
0.99999999
0.99999999
0.99999999
0.99999999
0.99999999
0.99999999
0.99999999
0.99999998
0.99999998
0.99999998
0.99999998
0.99999997
0.99999997
0.99999996
0.99999996
0.99999995
0.99999995
0.99999994
0.99999993
0.99999992
0.99999991
0.9999999
0.99999988
0.99999987
0.99999985
1
1
1
1
1
1
1
1
1
1
1
1
1
1
1
1
1
1
1
1
1
1
1
1
1
1
1
1
1
1
1
1
1
1
1
1
1
1
1
1
1
1
1
1
1
1
1
1
1
1
1
1
1
1
1
1
1
1
1
1
1
1
1
1
1
1
1
1
1
1
1
1
1
1
1
1
1
1
1
1
1
1
1
1
1
1
1
1
1
1
1
1
1
1
1
1
1
1
1
1
1
1
1
1
1
1
1
1
1
1
1
1
1
1
1
1
1
1
1
1
1
1
1
1
1
1
1
1
1
1
1
1
1
1
1
1
1
1
1
1
1
1
1
1
1
1
1
1
1
1
1
1
1
1
1
1
1
1
1
1
0.99999999
0.99999999
0.99999999
0.99999999
0.99999999
0.99999999
0.99999998
0.99999998
0.99999998
0.99999998
0.99999997
0.99999997
0.99999996
0.99999996
0.99999995
0.99999994
0.99999993
0.99999992
0.99999991
0.9999999
0.99999988
0.99999987
0.99999985
0.99999983
0.9999998
0.99999978
0.99999975
0.99999972
0.99999968
0.99999964
0.99999959
0.99999954
0.99999949
0.99999942
0.99999935
0.99999927
0.99999919
0.99999909
0.99999899
0.99999887
1
1
1
1
1
1
1
1
1
1
1
1
1
1
1
1
1
1
1
1
1
1
1
1
1
1
1
1
1
1
1
1
1
1
1
1
1
1
1
1
1
1
1
1
1
1
1
1
1
1
1
1
1
1
1
1
1
1
1
1
1
1
1
1
1
1
1
1
1
1
1
1
1
1
1
1
1
1
1
1
1
1
1
1
1
1
1
1
1
1
1
1
1
1
1
1
1
1
1
1
1
1
1
1
1
1
1
1
1
1
1
1
1
1
1
1
1
1
1
1
1
1
1
1
1
1
1
1
1
1
1
1
1
1
1
1
1
1
1
1
1
1
1
1
1
1
0.99999999
0.99999999
0.99999999
0.99999999
0.99999999
0.99999999
0.99999998
0.99999998
0.99999998
0.99999997
0.99999997
0.99999996
0.99999996
0.99999995
0.99999994
0.99999993
0.99999992
0.9999999
0.99999989
0.99999987
0.99999985
0.99999983
0.9999998
0.99999977
0.99999974
0.9999997
0.99999965
0.9999996
0.99999955
0.99999949
0.99999942
0.99999934
0.99999925
0.99999915
0.99999905
0.99999892
0.99999879
0.99999864
0.99999848
0.99999829
0.99999809
0.99999787
0.99999762
0.99999735
0.99999705
0.99999672
0.99999635
0.99999595
0.99999552
0.99999504
0.99999451
0.99999393
0.9999933
0.99999261
0.99999998
0.99999998
0.99999999
0.99999999
0.99999999
0.99999999
0.99999999
0.99999999
1
1
1
1
1
1
1
1
1
1
1
1
1
1
1
1
1
1
1
1
1
1
1
1
1
1
1
1
1
1
1
1
1
1
1
1
1
1
1
1
1
1
1
1
1
1
1
1
1
1
1
1
1
1
1
1
1
1
1
1
1
1
1
1
1
1
1
1
1
1
1
1
1
1
1
1
1
1
1
1
1
1
1
1
1
1
1
1
1
1
1
1
1
1
1
1
1
1
1
1
1
1
1
1
1
1
1
1
1
1
1
1
1
1
1
1
1
1
1
1
1
1
1
1
1
0.99999999
0.99999999
0.99999999
0.99999999
0.99999999
0.99999999
0.99999998
0.99999998
0.99999997
0.99999997
0.99999996
0.99999996
0.99999995
0.99999994
0.99999993
0.99999991
0.9999999
0.99999988
0.99999986
0.99999983
0.99999981
0.99999977
0.99999974
0.99999969
0.99999964
0.99999959
0.99999952
0.99999945
0.99999936
0.99999927
0.99999916
0.99999903
0.9999989
0.99999874
0.99999856
0.99999837
0.99999815
0.9999979
0.99999762
0.99999732
0.99999698
0.9999966
0.99999618
0.99999571
0.9999952
0.99999463
0.99999401
0.99999332
0.99999257
0.99999174
0.99999083
0.99998984
0.99998875
0.99998757
0.99998627
0.99998486
0.99998332
0.99998165
0.99997983
0.99997785
0.99997571
0.99997338
0.99997087
0.99996814
0.99996519
0.99996201
0.99995857
0.99999995
0.99999997
0.99999997
0.99999998
0.99999998
0.99999998
0.99999998
0.99999999
0.99999999
0.99999999
0.99999999
0.99999999
0.99999999
0.99999999
1
1
1
1
1
1
1
1
1
1
1
1
1
1
1
1
1
1
1
1
1
1
1
1
1
1
1
1
1
1
1
1
1
1
1
1
1
1
1
1
1
1
1
1
1
1
1
1
1
1
1
1
1
1
1
1
1
1
1
1
1
1
1
1
1
1
1
1
1
1
1
1
1
1
1
1
1
1
1
1
1
1
1
1
1
1
1
1
1
1
1
1
1
1
1
1
1
1
1
1
1
1
1
1
1
1
1
1
0.99999999
0.99999999
0.99999999
0.99999999
0.99999999
0.99999998
0.99999998
0.99999997
0.99999997
0.99999996
0.99999995
0.99999994
0.99999993
0.99999991
0.99999989
0.99999987
0.99999985
0.99999982
0.99999978
0.99999974
0.99999969
0.99999964
0.99999957
0.9999995
0.99999941
0.99999931
0.9999992
0.99999906
0.99999891
0.99999874
0.99999854
0.99999831
0.99999805
0.99999776
0.99999743
0.99999705
0.99999663
0.99999616
0.99999562
0.99999503
0.99999436
0.99999361
0.99999278
0.99999185
0.99999082
0.99998969
0.99998843
0.99998704
0.9999855
0.99998382
0.99998197
0.99997993
0.99997771
0.99997528
0.99997262
0.99996972
0.99996657
0.99996314
0.99995941
0.99995537
0.99995099
0.99994625
0.99994112
0.99993558
0.9999296
0.99992316
0.99991622
0.99990875
0.99990073
0.99989211
0.99988286
0.99987294
0.99986231
0.99985094
0.99983878
0.99982579
0.99981192
0.9997971
0.99999995
0.99999997
0.99999998
0.99999998
0.99999998
0.99999998
0.99999999
0.99999999
0.99999999
0.99999999
0.99999999
0.99999999
0.99999999
0.99999999
0.99999999
0.99999999
0.99999999
0.99999999
1
1
1
1
1
1
1
1
1
1
1
1
1
1
1
1
1
1
1
1
1
1
1
1
1
1
1
1
1
1
1
1
1
1
1
1
1
1
1
1
1
1
1
1
1
1
1
1
1
1
1
1
1
1
1
1
1
1
1
1
1
1
1
1
1
1
1
1
1
1
1
1
1
1
1
1
1
1
1
1
1
1
1
1
1
1
1
1
1
1
1
1
1
1
0.99999999
0.99999999
0.99999999
0.99999999
0.99999998
0.99999998
0.99999997
0.99999996
0.99999995
0.99999994
0.99999993
0.99999991
0.99999989
0.99999987
0.99999984
0.9999998
0.99999976
0.9999997
0.99999964
0.99999957
0.99999948
0.99999938
0.99999926
0.99999912
0.99999896
0.99999877
0.99999855
0.9999983
0.999998
0.99999766
0.99999728
0.99999683
0.99999632
0.99999574
0.99999508
0.99999434
0.99999349
0.99999253
0.99999144
0.99999022
0.99998885
0.99998732
0.9999856
0.99998368
0.99998154
0.99997915
0.99997651
0.99997358
0.99997034
0.99996677
0.99996283
0.9999585
0.99995374
0.99994853
0.99994283
0.99993661
0.99992982
0.99992243
0.9999144
0.99990569
0.99989625
0.99988604
0.999875
0.99986309
0.99985026
0.99983645
0.9998216
0.99980565
0.99978855
0.99977023
0.99975062
0.99972965
0.99970726
0.99968336
0.99965787
0.99963073
0.99960184
0.99957112
0.99953848
0.99950382
0.99946706
0.99942809
0.99938682
0.99934315
0.99929698
0.9992482
0.99919672
0.99914232
0.99999995
0.99999997
0.99999998
0.99999998
0.99999999
0.99999999
0.99999999
0.99999999
0.99999999
0.99999999
0.99999999
0.99999999
0.99999999
0.99999999
0.99999999
0.99999999
0.99999999
0.99999999
0.99999999
0.99999999
0.99999999
1
1
1
1
1
1
1
1
1
1
1
1
1
1
1
1
1
1
1
1
1
1
1
1
1
1
1
1
1
1
1
1
1
1
1
1
1
1
1
1
1
1
1
1
1
1
1
1
1
1
1
1
1
1
1
1
1
1
1
1
1
1
1
1
1
1
1
1
1
1
1
1
1
1
1
1
1
1
1
1
1
1
0.99999999
0.99999999
0.99999999
0.99999998
0.99999998
0.99999997
0.99999996
0.99999995
0.99999994
0.99999992
0.9999999
0.99999987
0.99999984
0.99999979
0.99999974
0.99999967
0.9999996
0.9999995
0.99999938
0.99999924
0.99999907
0.99999887
0.99999864
0.99999836
0.99999802
0.99999764
0.99999718
0.99999665
0.99999603
0.99999532
0.99999449
0.99999354
0.99999245
0.9999912
0.99998977
0.99998815
0.9999863
0.9999842
0.99998183
0.99997916
0.99997615
0.99997277
0.99996898
0.99996474
0.99996001
0.99995474
0.99994889
0.99994239
0.9999352
0.99992725
0.99991848
0.99990883
0.99989823
0.9998866
0.99987387
0.99985996
0.99984479
0.99982827
0.99981031
0.99979083
0.99976972
0.99974689
0.99972223
0.99969565
0.99966704
0.99963628
0.99960326
0.99956787
0.99952999
0.99948949
0.99944625
0.99940014
0.99935103
0.99929878
0.99924326
0.99918432
0.99912181
0.99905559
0.99898549
0.99891137
0.99883306
0.99875039
0.99866319
0.9985713
0.99847452
0.99837269
0.99826562
0.99815312
0.998035
0.99791107
0.99778114
0.99764502
0.99750253
0.99735347
0.99719766
0.99703498
0.99686493
0.99999994
0.99999997
0.99999998
0.99999998
0.99999999
0.99999999
0.99999999
0.99999999
0.99999999
0.99999999
0.99999999
0.99999999
0.99999999
0.99999999
0.99999999
0.99999999
0.99999999
0.99999999
0.99999999
0.99999999
0.99999999
0.99999999
0.99999999
1
1
1
1
1
1
1
1
1
1
1
1
1
1
1
1
1
1
1
1
1
1
1
1
1
1
1
1
1
1
1
1
1
1
1
1
1
1
1
1
1
1
1
1
1
1
1
1
1
1
1
1
1
1
1
1
1
1
1
1
1
1
1
1
1
1
1
1
1
1
1
1
0.99999999
0.99999999
0.99999999
0.99999998
0.99999998
0.99999997
0.99999995
0.99999994
0.99999992
0.99999989
0.99999985
0.9999998
0.99999974
0.99999966
0.99999956
0.99999943
0.99999928
0.99999909
0.99999885
0.99999856
0.99999821
0.99999778
0.99999727
0.99999665
0.99999592
0.99999505
0.99999402
0.99999281
0.99999139
0.99998974
0.99998781
0.99998559
0.99998302
0.99998006
0.99997667
0.99997281
0.9999684
0.9999634
0.99995774
0.99995134
0.99994414
0.99993606
0.999927
0.99991688
0.9999056
0.99989305
0.99987911
0.99986368
0.99984662
0.99982781
0.9998071
0.99978435
0.9997594
0.99973209
0.99970226
0.99966973
0.99963432
0.99959585
0.99955411
0.99950892
0.99946007
0.99940734
0.99935054
0.99928944
0.99922381
0.99915344
0.99907809
0.99899755
0.99891156
0.99881991
0.99872235
0.99861864
0.99850855
0.99839183
0.99826823
0.99813752
0.99799945
0.99785376
0.99770021
0.99753854
0.9973685
0.99718983
0.99700227
0.99680555
0.99659942
0.9963836
0.99615783
0.99592182
0.9956753
0.99541799
0.99514961
0.99486987
0.9945785
0.99427521
0.99395971
0.99363172
0.99329097
0.99293717
0.99257007
0.99218941
0.99179494
0.99138645
0.9909637
0.99052662
0.99007448
0.99999994
0.99999996
0.99999998
0.99999998
0.99999999
0.99999999
0.99999999
0.99999999
0.99999999
0.99999999
0.99999999
0.99999999
0.99999999
0.99999999
0.99999999
0.99999999
0.99999999
0.99999999
0.99999999
0.99999999
0.99999999
0.99999999
0.99999999
0.99999999
1
1
1
1
1
1
1
1
1
1
1
1
1
1
1
1
1
1
1
1
1
1
1
1
1
1
1
1
1
1
1
1
1
1
1
1
1
1
1
1
1
1
1
1
1
1
1
1
1
1
1
1
1
1
1
1
1
1
1
1
1
1
1
1
1
0.99999999
0.99999999
0.99999998
0.99999997
0.99999996
0.99999994
0.99999991
0.99999987
0.99999982
0.99999975
0.99999965
0.99999953
0.99999936
0.99999915
0.99999888
0.99999854
0.9999981
0.99999756
0.99999688
0.99999605
0.99999503
0.99999378
0.99999227
0.99999046
0.99998829
0.9999857
0.99998263
0.99997902
0.99997478
0.99996982
0.99996406
0.9999574
0.99994971
0.99994089
0.9999308
0.9999193
0.99990623
0.99989145
0.99987478
0.99985603
0.99983502
0.99981153
0.99978536
0.99975626
0.999724
0.99968833
0.99964898
0.99960567
0.9995581
0.99950598
0.999449
0.99938681
0.99931908
0.99924545
0.99916557
0.99907906
0.99898554
0.9988846
0.99877586
0.9986589
0.9985333
0.99839865
0.99825452
0.99810049
0.99793611
0.99776097
0.99757463
0.99737666
0.99716665
0.99694417
0.99670881
0.99646015
0.9961978
0.99592136
0.99563043
0.99532465
0.99500363
0.99466701
0.99431444
0.99394557
0.99356005
0.99315754
0.99273773
0.99230027
0.99184486
0.99137117
0.9908789
0.99036774
0.98983738
0.98928751
0.98871784
0.98812806
0.98751788
0.98688699
0.98623512
0.98556196
0.98486722
0.98415064
0.98341193
0.98265082
0.98186706
0.98106041
0.98023062
0.97937751
0.97850086
0.97760054
0.9766764
0.97572837
0.97475638
0.97376056
0.97274045
0.99999994
0.99999996
0.99999998
0.99999998
0.99999999
0.99999999
0.99999999
0.99999999
0.99999999
0.99999999
0.99999999
0.99999999
0.99999999
0.99999999
0.99999999
0.99999999
0.99999999
0.99999999
0.99999999
0.99999999
0.99999999
0.99999999
0.99999999
0.99999999
0.99999999
0.99999999
1
1
1
1
1
1
1
1
1
1
1
1
1
1
1
1
1
1
1
1
1
1
1
1
1
1
1
1
1
1
1
1
1
1
1
1
1
1
1
1
1
1
1
1
1
1
1
1
1
1
1
1
1
1
1
1
1
0.99999999
0.99999999
0.99999998
0.99999996
0.99999994
0.9999999
0.99999984
0.99999976
0.99999965
0.99999948
0.99999926
0.99999895
0.99999854
0.999998
0.99999729
0.99999638
0.9999952
0.99999372
0.99999185
0.99998952
0.99998664
0.99998311
0.99997881
0.99997361
0.99996736
0.99995989
0.99995103
0.99994057
0.9999283
0.99991396
0.9998973
0.99987804
0.99985587
0.99983047
0.99980149
0.99976856
0.99973129
0.99968928
0.99964209
0.99958928
0.99953037
0.99946486
0.99939227
0.99931204
0.99922365
0.99912653
0.99902009
0.99890375
0.9987769
0.9986389
0.99848912
0.99832691
0.9981516
0.99796251
0.99775896
0.99754024
0.99730566
0.9970545
0.99678605
0.99649959
0.99619439
0.99586975
0.99552494
0.99515925
0.99477199
0.99436247
0.99393001
0.99347395
0.99299365
0.99248848
0.99195786
0.9914012
0.99081796
0.99020763
0.9895697
0.98890374
0.9882093
0.987486
0.98673346
0.98595136
0.98513938
0.98429726
0.98342475
0.98252162
0.98158767
0.98062273
0.97962665
0.97859928
0.9775405
0.97645021
0.9753283
0.9741747
0.97298932
0.9717721
0.97052296
0.96924186
0.96792873
0.96658353
0.96520622
0.96379674
0.96235507
0.96088119
0.95937506
0.95783669
0.95626608
0.95466326
0.95302825
0.95136113
0.94966198
0.94793094
0.94616816
0.94437386
0.9425483
0.94069181
0.93880478
0.93688767
0.93494152
0.99999993
0.99999996
0.99999997
0.99999998
0.99999999
0.99999999
0.99999999
0.99999999
0.99999999
0.99999999
0.99999999
0.99999999
0.99999999
0.99999999
0.99999999
0.99999999
0.99999999
0.99999999
0.99999999
0.99999999
0.99999999
0.99999999
0.99999999
0.99999999
0.99999999
0.99999999
1
1
1
1
1
1
1
1
1
1
1
1
1
1
1
1
1
1
1
1
1
1
1
1
1
1
1
1
1
1
1
1
1
1
1
1
1
1
1
1
1
1
1
1
1
1
1
1
1
1
1
1
0.99999999
0.99999998
0.99999996
0.99999993
0.99999987
0.99999978
0.99999963
0.9999994
0.99999906
0.99999856
0.99999786
0.99999688
0.99999554
0.99999374
0.99999136
0.99998826
0.99998425
0.99997916
0.99997274
0.99996473
0.99995485
0.99994274
0.99992804
0.99991034
0.99988916
0.99986401
0.99983433
0.99979953
0.99975897
0.99971195
0.99965774
0.99959556
0.99952459
0.99944397
0.9993528
0.99925014
0.99913501
0.99900643
0.99886336
0.99870476
0.99852956
0.99833667
0.99812499
0.99789342
0.99764085
0.99736615
0.99706821
0.99674591
0.99639814
0.99602378
0.99562175
0.99519095
0.9947303
0.99423873
0.99371519
0.99315865
0.99256809
0.9919425
0.99128092
0.99058239
0.98984597
0.98907078
0.98825594
0.98740061
0.986504
0.98556535
0.98458395
0.98355912
0.98249026
0.98137679
0.9802182
0.97901404
0.97776392
0.97646752
0.97512457
0.97373486
0.97229827
0.97081473
0.96928423
0.96770683
0.96608266
0.9644119
0.96269479
0.96093161
0.9591227
0.95726845
0.95536927
0.95342563
0.95143802
0.94940695
0.94733295
0.94521657
0.94305838
0.94085894
0.93861883
0.93633862
0.93401888
0.93166017
0.92926305
0.92682807
0.92435577
0.92184668
0.91930133
0.91672022
0.91410387
0.91145279
0.90876747
0.90604841
0.90329613
0.90051114
0.89769397
0.89484517
0.8919653
0.88905497
0.88611481
0.88314551
0.88014778
0.87712243
0.87407031
0.87099243
0.86788943
0.86476552
0.99999993
0.99999996
0.99999997
0.99999998
0.99999999
0.99999999
0.99999999
0.99999999
0.99999999
0.99999999
0.99999999
0.99999999
0.99999999
0.99999999
0.99999999
0.99999999
0.99999999
0.99999999
0.99999999
0.99999999
0.99999999
0.99999999
0.99999999
0.99999999
0.99999999
0.99999999
0.99999999
1
1
1
1
1
1
1
1
1
1
1
1
1
1
1
1
1
1
1
1
1
1
1
1
1
1
1
1
1
1
1
1
1
1
1
1
1
1
1
1
1
1
1
1
1
1
1
0.99999999
0.99999996
0.9999999
0.99999978
0.99999956
0.99999918
0.99999854
0.99999754
0.99999602
0.99999377
0.99999057
0.99998609
0.99997999
0.99997181
0.99996107
0.99994716
0.99992942
0.99990709
0.99987931
0.99984514
0.99980354
0.99975337
0.99969339
0.99962227
0.99953857
0.99944078
0.9993273
0.99919643
0.99904641
0.99887541
0.99868153
0.99846282
0.99821731
0.99794297
0.99763775
0.99729961
0.9969265
0.99651636
0.99606718
0.99557696
0.99504377
0.9944657
0.99384092
0.99316763
0.99244415
0.99166885
0.99084017
0.98995666
0.98901694
0.98801971
0.98696379
0.98584805
0.98467146
0.9834331
0.98213209
0.98076767
0.97933914
0.97784589
0.97628737
0.97466312
0.97297276
0.97121596
0.96939249
0.96750219
0.96554494
0.96352074
0.96142965
0.95927179
0.95704738
0.95475672
0.95240018
0.94997821
0.94749138
0.94494029
0.94232568
0.93964834
0.93690915
0.93410908
0.93124917
0.92833056
0.92535444
0.92232208
0.91923479
0.91609398
0.91290107
0.90965754
0.90636491
0.90302473
0.89963854
0.89620794
0.89273449
0.88921978
0.88566536
0.8820728
0.87844361
0.87477928
0.87108129
0.86735105
0.86358995
0.85979931
0.85598043
0.85213456
0.84826288
0.84436656
0.84044668
0.83650432
0.83254049
0.82855618
0.82455233
0.82052987
0.81648969
0.81243267
0.80835967
0.80427155
0.80016917
0.79605337
0.79192502
0.78778502
0.78363428
0.77947374
0.77530438
0.77112726
0.76694344
0.7627543
0.75856001
0.7543691
0.99999992
0.99999995
0.99999997
0.99999998
0.99999998
0.99999999
0.99999999
0.99999999
0.99999999
0.99999999
0.99999999
0.99999999
0.99999999
0.99999999
0.99999999
0.99999999
0.99999999
0.99999999
0.99999999
0.99999999
0.99999999
0.99999999
0.99999999
0.99999999
0.99999999
0.99999999
0.99999999
1
1
1
1
1
1
1
1
1
1
1
1
1
1
1
1
1
1
1
1
1
1
1
1
1
1
1
1
1
1
1
1
1
1
1
1
1
1
1
1
1
1
1
0.99999999
0.99999993
0.99999974
0.99999929
0.99999834
0.99999657
0.99999354
0.99998864
0.99998113
0.99997005
0.99995427
0.99993244
0.99990301
0.99986419
0.99981398
0.99975018
0.99967036
0.99957188
0.99945192
0.99930749
0.9991354
0.99893236
0.99869491
0.99841949
0.99810248
0.99774016
0.99732878
0.99686458
0.99634378
0.99576265
0.99511751
0.99440475
0.99362086
0.99276245
0.99182629
0.99080929
0.98970855
0.98852137
0.98724527
0.98587798
0.98441748
0.98286199
0.98120997
0.97946013
0.97761145
0.97566314
0.97361466
0.97146571
0.96921622
0.96686633
0.96441639
0.96186695
0.95921874
0.95647265
0.95362974
0.95069118
0.9476583
0.94453251
0.94131533
0.93800839
0.93461336
0.93113201
0.92756615
0.92391767
0.92018847
0.91638054
0.91249587
0.90853651
0.90450456
0.90040214
0.8962314
0.89199454
0.8876938
0.88333146
0.87890982
0.87443123
0.86989808
0.86531279
0.86067781
0.85599563
0.85126875
0.84649971
0.84169106
0.83684535
0.83196517
0.82705306
0.82211158
0.81714326
0.81215062
0.80713612
0.80210219
0.79705123
0.79198553
0.78690737
0.78181892
0.77672228
0.77161948
0.76651245
0.76140304
0.75629298
0.75118394
0.74607747
0.74097504
0.73587801
0.73078766
0.72570519
0.7206317
0.71556821
0.71051568
0.70547499
0.70044696
0.69543234
0.69043184
0.68544614
0.68047585
0.67552157
0.67058388
0.66566334
0.66076048
0.65587584
0.65100998
0.64616345
0.64133682
0.63653069
0.63174568
0.62698247
0.62224171
0.61752451
0.61282989
0.60817008
0.99999991
0.99999994
0.99999996
0.99999997
0.99999997
0.99999998
0.99999998
0.99999999
0.99999999
0.99999999
0.99999999
0.99999999
0.99999999
0.99999999
0.99999999
0.99999999
0.99999999
0.99999999
0.99999999
0.99999999
0.99999999
0.99999999
0.99999999
0.99999999
0.99999999
0.99999999
1
1
1
1
1
1
1
1
1
1
1
1
1
1
1
1
1
1
1
1
1
1
1
1
1
1
1
1
1
1
1
1
1
1
1
1
1
1
1
1
1
0.99999999
0.99999944
0.99999731
0.99999217
0.99998205
0.99996439
0.999936
0.99989306
0.99983116
0.9997453
0.99962992
0.99947904
0.99928622
0.99904472
0.99874753
0.99838745
0.99795719
0.99744942
0.99685684
0.99617228
0.99538872
0.99449938
0.99349772
0.99237756
0.99113307
0.9897588
0.98824974
0.98660134
0.98480951
0.98287065
0.98078169
0.97854004
0.97614366
0.97359103
0.97088113
0.9680135
0.96498815
0.96180562
0.95846692
0.95497353
0.95132739
0.94753086
0.94358669
0.93949801
0.9352683
0.93090134
0.9264012
0.92177217
0.91701879
0.91214573
0.90715784
0.90206008
0.89685745
0.89155505
0.88615797
0.88067129
0.87510009
0.86944937
0.86372407
0.85792906
0.85206908
0.84614878
0.84017271
0.83414526
0.82807072
0.82195325
0.81579686
0.80960547
0.80338285
0.79713267
0.79085848
0.78456374
0.77825178
0.77192587
0.76558918
0.75924478
0.75289569
0.74654486
0.74019513
0.73384933
0.72751019
0.72118038
0.71486251
0.70855912
0.70227269
0.69600563
0.68976027
0.68353885
0.67734357
0.67117649
0.66503962
0.65893486
0.65286402
0.64682878
0.64083074
0.63487139
0.6289521
0.62307413
0.61723862
0.61144661
0.60569901
0.59999663
0.59434018
0.58873024
0.58316732
0.57765181
0.57218401
0.56676415
0.56139236
0.55606871
0.55079321
0.5455658
0.54038636
0.53525473
0.53017073
0.52513412
0.52014464
0.51520203
0.51030601
0.50545627
0.50065253
0.49589449
0.49118188
0.48651444
0.48189192
0.4773141
0.4727808
0.46829184
0.46384713
0.45944647
0.45509031
0.45077642
0.44651809
0.99999987
0.99999992
0.99999993
0.99999994
0.99999995
0.99999995
0.99999996
0.99999996
0.99999996
0.99999997
0.99999997
0.99999997
0.99999998
0.99999998
0.99999998
0.99999998
0.99999998
0.99999998
0.99999999
0.99999999
0.99999999
0.99999999
0.99999999
0.99999999
0.99999999
0.99999999
0.99999999
0.99999999
0.99999999
0.99999999
0.99999999
1
1
1
1
1
1
1
1
1
1
1
1
1
1
1
1
1
1
1
1
1
1
1
1
1
1
1
1
1
0.99999999
0.99999997
0.99999993
0.99999986
0.99999817
0.99998049
0.99993614
0.99985226
0.99971459
0.99950768
0.99921508
0.99881982
0.99830477
0.99765301
0.99684807
0.99587428
0.99471691
0.9933624
0.99179848
0.99001427
0.98800033
0.98574872
0.98325298
0.98050812
0.9775106
0.97425824
0.97075018
0.96698682
0.96296971
0.9587015
0.95418582
0.94942724
0.94443116
0.93920373
0.9337518
0.92808282
0.92220476
0.91612608
0.90985563
0.90340262
0.89677652
0.88998705
0.88304409
0.87595765
0.86873781
0.86139469
0.85393837
0.8463789
0.83872619
0.83099005
0.8231801
0.81530573
0.80737613
0.7994002
0.79138655
0.78334348
0.77527895
0.7672006
0.75911567
0.75103106
0.74295329
0.73488849
0.72684243
0.71882049
0.7108277
0.70286873
0.69494787
0.68706912
0.67923613
0.67145224
0.66372052
0.65604375
0.64842446
0.64086496
0.63336732
0.62593342
0.61856494
0.61126343
0.60403026
0.59686666
0.58977376
0.58275256
0.57580396
0.5689288
0.56212779
0.5554016
0.54875081
0.54217594
0.53567746
0.52925577
0.52291119
0.51664402
0.51045447
0.5043427
0.49830882
0.49235287
0.48647482
0.48067459
0.47495202
0.46930689
0.46373893
0.45824778
0.45283302
0.44749416
0.44223067
0.43704193
0.43192728
0.42688597
0.42191724
0.41702024
0.41219411
0.40743791
0.40275069
0.39813145
0.39357918
0.38909283
0.38467134
0.38031363
0.37601862
0.37178522
0.36761235
0.36349893
0.35944388
0.35544615
0.35150469
0.34761848
0.34378653
0.34000786
0.33628154
0.33260664
0.3289823
0.32540766
0.32188193
0.31840433
0.31497413
0.31159067
0.30825319
0.30496153
0.30171305
0.29851912
0.99997055
0.99996601
0.99996137
0.99995783
0.99995536
0.99995379
0.99995293
0.99995265
0.99995284
0.99995342
0.99995429
0.9999554
0.99995669
0.99995811
0.99995962
0.99996119
0.99996279
0.99996442
0.99996606
0.99996773
0.99996947
0.99997131
0.99997333
0.99997546
0.99997765
0.99997989
0.99998215
0.99998442
0.99998669
0.99998899
0.99999135
0.99999393
0.99999767
0.99999882
0.99999913
0.9999993
0.99999941
0.99999948
0.99999953
0.99999958
0.99999961
0.99999963
0.99999965
0.99999966
0.99999967
0.99999968
0.99999968
0.99999969
0.99999969
0.99999968
0.99999968
0.99999964
0.99999953
0.9999993
0.99999892
0.99999836
0.9999976
0.99999659
0.99999532
0.99998967
0.99980418
0.99938966
0.99869773
0.99768188
0.99629961
0.99452385
0.99232744
0.98968899
0.98659285
0.98302891
0.97899229
0.97448294
0.96950521
0.96406737
0.95818112
0.95186112
0.94512451
0.93799045
0.93047971
0.92261429
0.91441704
0.90591139
0.89712105
0.88806976
0.87878109
0.86927828
0.85958408
0.84972065
0.83970943
0.82957112
0.81932559
0.80899185
0.79858802
0.78813136
0.77763822
0.76712405
0.75660343
0.74609009
0.73559691
0.72513594
0.71471845
0.70435491
0.69405507
0.68382794
0.67368182
0.66362434
0.65366249
0.6438026
0.63405043
0.62441114
0.61488931
0.60548902
0.59621381
0.58706673
0.57805037
0.56916687
0.56041793
0.55180488
0.54332866
0.53498986
0.52678874
0.51872526
0.51079909
0.50300966
0.49535615
0.48783755
0.48045264
0.47320005
0.46607827
0.45908564
0.45222042
0.44548078
0.43886479
0.43237052
0.42599595
0.41973906
0.41359781
0.40757015
0.40165405
0.39584748
0.39014844
0.38455495
0.37906505
0.37367685
0.36838844
0.36319801
0.35810373
0.35310384
0.34819661
0.34338034
0.33865337
0.33401406
0.32946081
0.32499203
0.32060618
0.3163017
0.31207709
0.30793084
0.30386145
0.29986745
0.29594737
0.29209974
0.28832312
0.28461607
0.28097713
0.27740488
0.2738979
0.27045477
0.26707408
0.26375444
0.26049447
0.25729279
0.25414804
0.25105889
0.24802401
0.2450421
0.24211189
0.23923211
0.23640153
0.23361895
0.23088319
0.22819311
0.22554757
0.22294551
0.22038585
0.21786759
0.21538972
0.2129513
0.21055141
0.20818916
0.2058637
0.20357421
0.20131992
0.19910007
0.19691395
0.1947609
0.19264018
0.19055153
0.18849282
0.18647208
0.99821973
0.99614543
0.99292836
0.98882993
0.9841149
0.97902402
0.973751
0.96844623
0.96322584
0.95817734
0.95336221
0.94881759
0.94455816
0.94057822
0.93685363
0.93334338
0.92999073
0.9267234
0.92345223
0.92006789
0.91643519
0.91286776
0.91184343
0.91301436
0.91609516
0.92084651
0.92706558
0.93452847
0.94304809
0.95245904
0.96265178
0.97393708
0.99176814
0.99627955
0.99754912
0.99814872
0.99849703
0.99872343
0.9988812
0.99899631
0.99908297
0.9991496
0.99920151
0.99924219
0.99927407
0.99929885
0.99931776
0.99933171
0.9993414
0.99934734
0.9993499
0.99849041
0.99636449
0.99301873
0.98849633
0.98283818
0.97608355
0.96827061
0.95943671
0.94962245
0.93902828
0.92773571
0.91582487
0.90337367
0.89045715
0.87714697
0.86351103
0.84961316
0.83551287
0.8212653
0.80692124
0.7925271
0.77812506
0.76375322
0.74944573
0.73523302
0.72114198
0.70719621
0.69341623
0.67981972
0.66642175
0.65323498
0.6402699
0.62753505
0.61503716
0.6027814
0.59077151
0.57900996
0.56749813
0.55623643
0.5452244
0.53446087
0.523944
0.51367145
0.5036404
0.49384762
0.4842896
0.47496253
0.4658624
0.45698501
0.44832603
0.43988102
0.43164549
0.42361485
0.41578452
0.40814986
0.40070626
0.39344911
0.38637381
0.37947581
0.37275056
0.36619358
0.35980044
0.35356673
0.34748814
0.34156037
0.33577923
0.33014056
0.3246403
0.31927444
0.31403906
0.3089303
0.30394439
0.29907766
0.29432651
0.28968741
0.28515696
0.28073183
0.27640876
0.27218464
0.2680564
0.26402111
0.26007591
0.25621804
0.25244486
0.24875379
0.24514238
0.24160825
0.23814913
0.23476284
0.23144726
0.2282004
0.22502031
0.22190516
0.21885317
0.21586264
0.21293194
0.21005951
0.20724385
0.20448351
0.20177709
0.19912328
0.19652077
0.19396831
0.1914647
0.18900876
0.18659937
0.1842354
0.1819158
0.1796395
0.17740548
0.17521273
0.17306027
0.17094715
0.1688724
0.16683511
0.16483437
0.16286927
0.16093895
0.15904255
0.15717921
0.15534812
0.15354846
0.15177943
0.15004026
0.14833018
0.14664847
0.14499439
0.14336724
0.14176634
0.14019102
0.13864063
0.13711455
0.13561216
0.13413289
0.13267617
0.13124145