/*--------------------------------*- C++ -*----------------------------------*\
| =========                 |                                                 |
| \\      /  F ield         | OpenFOAM: The Open Source CFD Toolbox           |
|  \\    /   O peration     | Version:  2406                                  |
|   \\  /    A nd           | Website:  www.openfoam.com                      |
|    \\/     M anipulation  |                                                 |
\*---------------------------------------------------------------------------*/
FoamFile
{
    version     2.0;
    format      ascii;
    arch        "LSB;label=32;scalar=64";
    class       volVectorField;
    location    "2500";
    object      U;
}
// * * * * * * * * * * * * * * * * * * * * * * * * * * * * * * * * * * * * * //

dimensions      [0 1 -1 0 0 0 0];

internalField   nonuniform List<vector> 
9200
(
(0.0022524412 -0.0013146261 0)
(0.0043373243 -0.0019129955 0)
(0.011244326 -0.00095660576 0)
(0.014900542 -0.00025700171 0)
(0.01558388 1.5199327e-05 0)
(0.015041332 0.0001029043 0)
(0.014072284 0.0001243963 0)
(0.012975722 0.00012019677 0)
(0.011889679 0.00010760022 0)
(0.010869039 9.4432673e-05 0)
(0.0099251848 8.3152655e-05 0)
(0.0090539043 7.3922079e-05 0)
(0.0082476233 6.6317556e-05 0)
(0.0074992394 5.9892718e-05 0)
(0.0068030794 5.4300189e-05 0)
(0.0061548953 4.9301969e-05 0)
(0.00555155 4.4746716e-05 0)
(0.0049906794 4.0541319e-05 0)
(0.00447042 3.6629318e-05 0)
(0.0039892053 3.2977152e-05 0)
(0.0035456166 2.9565577e-05 0)
(0.0031382754 2.6384089e-05 0)
(0.0027657708 2.3427138e-05 0)
(0.0024266144 2.0691471e-05 0)
(0.0021192189 1.8174292e-05 0)
(0.0018418954 1.5872029e-05 0)
(0.001592865 1.3779614e-05 0)
(0.0013702798 1.189013e-05 0)
(0.001172251 1.0194778e-05 0)
(0.0009968785 8.6830308e-06 0)
(0.00084228112 7.3429418e-06 0)
(0.00070662446 6.1615143e-06 0)
(0.00058814501 5.1250994e-06 0)
(0.00048516993 4.2197817e-06 0)
(0.000396132 3.4317273e-06 0)
(0.00031957975 2.7474831e-06 0)
(0.00025418321 2.1542184e-06 0)
(0.00019873565 1.6399109e-06 0)
(0.00015215199 1.1934776e-06 0)
(0.0001134644 8.0485916e-07 0)
(8.1815918e-05 4.6506061e-07 0)
(5.645246e-05 1.6615766e-07 0)
(3.6713878e-05 -9.8726807e-08 0)
(2.2024499e-05 -3.3546649e-07 0)
(1.1883509e-05 -5.4899199e-07 0)
(5.8554726e-06 -7.4335506e-07 0)
(3.5611164e-06 -9.2176028e-07 0)
(4.6693076e-06 -1.0867982e-06 0)
(8.8878887e-06 -1.2405507e-06 0)
(1.5961206e-05 -1.3846721e-06 0)
(2.5660232e-05 -1.5202878e-06 0)
(3.7777576e-05 -1.6479944e-06 0)
(5.2123154e-05 -1.7681316e-06 0)
(6.8520662e-05 -1.8808675e-06 0)
(8.6804756e-05 -1.9862357e-06 0)
(0.00010681871 -2.0841613e-06 0)
(0.00012841252 -2.1744961e-06 0)
(0.00015144157 -2.257051e-06 0)
(0.00017576556 -2.3316282e-06 0)
(0.00020124789 -2.3980431e-06 0)
(0.00022775531 -2.4561449e-06 0)
(0.00025515775 -2.5058285e-06 0)
(0.00028332842 -2.5470453e-06 0)
(0.00031214393 -2.5798073e-06 0)
(0.00034148456 -2.604192e-06 0)
(0.00037123464 -2.6203399e-06 0)
(0.00040128286 -2.628455e-06 0)
(0.00043152264 -2.6287985e-06 0)
(0.00046185251 -2.6216861e-06 0)
(0.00049217639 -2.6074795e-06 0)
(0.0005224039 -2.5865822e-06 0)
(0.0005524506 -2.5594297e-06 0)
(0.00058223816 -2.5264853e-06 0)
(0.00061169447 -2.4882297e-06 0)
(0.00064075377 -2.4451576e-06 0)
(0.00066935656 -2.397768e-06 0)
(0.00069744966 -2.3465612e-06 0)
(0.00072498606 -2.2920308e-06 0)
(0.00075192481 -2.2346613e-06 0)
(0.00077823081 -2.1749216e-06 0)
(0.00080387463 -2.1132639e-06 0)
(0.00082883224 -2.0501184e-06 0)
(0.00085308475 -1.9858932e-06 0)
(0.00087661811 -1.9209707e-06 0)
(0.00089942281 -1.855708e-06 0)
(0.00092149354 -1.7904345e-06 0)
(0.00094282892 -1.7254531e-06 0)
(0.00096343108 -1.6610385e-06 0)
(0.00098330544 -1.5974396e-06 0)
(0.0010024603 -1.5348776e-06 0)
(0.0010209066 -1.4735493e-06 0)
(0.0010386575 -1.4136252e-06 0)
(0.0010557283 -1.3552536e-06 0)
(0.0010721357 -1.298559e-06 0)
(0.0010878984 -1.2436455e-06 0)
(0.0011030357 -1.1905961e-06 0)
(0.0011175682 -1.1394762e-06 0)
(0.0011315171 -1.0903324e-06 0)
(0.0011449043 -1.0431964e-06 0)
(0.0011577519 -9.9808372e-07 0)
(0.0011700822 -9.549974e-07 0)
(0.0011819174 -9.1392695e-07 0)
(0.0011932799 -8.7485179e-07 0)
(0.0012041914 -8.3774018e-07 0)
(0.0012146737 -8.0255252e-07 0)
(0.0012247478 -7.6924041e-07 0)
(0.0012344343 -7.377496e-07 0)
(0.0012437532 -7.0801926e-07 0)
(0.001252724 -6.7998461e-07 0)
(0.0012613651 -6.5357633e-07 0)
(0.0012696946 -6.287229e-07 0)
(0.0012777297 -6.0535015e-07 0)
(0.0012854866 -5.8338334e-07 0)
(0.0012929812 -5.6274675e-07 0)
(0.0013002282 -5.4336555e-07 0)
(0.0013072419 -5.2516542e-07 0)
(0.0013140357 -5.0807422e-07 0)
(0.0013206222 -4.9202157e-07 0)
(0.0013270136 -4.7694035e-07 0)
(0.0013332214 -4.6276621e-07 0)
(0.0013392562 -4.4943891e-07 0)
(0.0013451285 -4.3690173e-07 0)
(0.0013508479 -4.2510263e-07 0)
(0.0013564237 -4.1399357e-07 0)
(0.0013618648 -4.035315e-07 0)
(0.0013671796 -3.9367755e-07 0)
(0.0013723762 -3.8439784e-07 0)
(0.0013774624 -3.7566263e-07 0)
(0.0013824457 -3.674469e-07 0)
(0.0013873332 -3.5972938e-07 0)
(0.001392132 -3.5249309e-07 0)
(0.001396849 -3.4572418e-07 0)
(0.0014014907 -3.3941243e-07 0)
(0.0014060636 -3.3354992e-07 0)
(0.0014105741 -3.2813158e-07 0)
(0.0014150284 -3.2315373e-07 0)
(0.0014194325 -3.1861463e-07 0)
(0.0014237923 -3.1451292e-07 0)
(0.0014281137 -3.1084832e-07 0)
(0.0014324024 -3.0761996e-07 0)
(0.0014366639 -3.0482715e-07 0)
(0.0014409034 -3.0246776e-07 0)
(0.0014451264 -3.005391e-07 0)
(0.0014493377 -2.9903625e-07 0)
(0.0014535422 -2.9795323e-07 0)
(0.0014577445 -2.9728125e-07 0)
(0.001461949 -2.9701014e-07 0)
(0.0014661598 -2.9712655e-07 0)
(0.0014703808 -2.9761572e-07 0)
(0.0014746157 -2.9845964e-07 0)
(0.0014788677 -2.9963904e-07 0)
(0.0014831399 -3.0113161e-07 0)
(0.001487435 -3.0291415e-07 0)
(0.0014917555 -3.0496089e-07 0)
(0.0014961036 -3.0724573e-07 0)
(0.0015004811 -3.0974066e-07 0)
(0.0015048896 -3.12418e-07 0)
(0.0015093303 -3.1524904e-07 0)
(0.0015138044 -3.1820609e-07 0)
(0.0015183126 -3.2126133e-07 0)
(0.0015228556 -3.2438873e-07 0)
(0.0015274337 -3.2756302e-07 0)
(0.0015320471 -3.3076139e-07 0)
(0.001536696 -3.3396259e-07 0)
(0.0015413802 -3.3714844e-07 0)
(0.0015460997 -3.4030296e-07 0)
(0.0015508543 -3.4341367e-07 0)
(0.0015556437 -3.4647078e-07 0)
(0.0015604677 -3.4946823e-07 0)
(0.0015653262 -3.5240293e-07 0)
(0.0015702191 -3.552756e-07 0)
(0.0015751463 -3.5808997e-07 0)
(0.001580108 -3.6085349e-07 0)
(0.0015851043 -3.6357652e-07 0)
(0.0015901356 -3.6627293e-07 0)
(0.0015952026 -3.6895928e-07 0)
(0.0016003059 -3.7165546e-07 0)
(0.0016054466 -3.7438384e-07 0)
(0.0016106257 -3.7717009e-07 0)
(0.001615845 -3.8004247e-07 0)
(0.0016211059 -3.8303286e-07 0)
(0.0016264107 -3.861765e-07 0)
(0.0016317617 -3.8951359e-07 0)
(0.0016371617 -3.9308972e-07 0)
(0.001642614 -3.9695867e-07 0)
(0.0016481225 -4.0118448e-07 0)
(0.0016536917 -4.0584667e-07 0)
(0.0016593272 -4.1104614e-07 0)
(0.0016650359 -4.1691709e-07 0)
(0.0016708267 -4.2364599e-07 0)
(0.0016767109 -4.3151346e-07 0)
(0.0016827043 -4.4098968e-07 0)
(0.00168883 -4.5298791e-07 0)
(0.0016951245 -4.6955912e-07 0)
(0.001701651 -4.9561642e-07 0)
(0.0017085351 -5.4406777e-07 0)
(0.0017160311 -6.5170105e-07 0)
(0.0017245993 -8.9496166e-07 0)
(0.0017357049 -1.2952225e-06 0)
(0.0017573255 -4.126698e-06 0)
(0.027939307 -0.0094859344 0)
(0.033266422 -0.0093353306 0)
(0.039451177 -0.005221507 0)
(0.043101323 -0.0018448133 0)
(0.043276617 6.4620066e-05 0)
(0.041685254 0.0009142891 0)
(0.039377084 0.0012121375 0)
(0.036805336 0.0012649224 0)
(0.034199844 0.00121881 0)
(0.031674966 0.0011407953 0)
(0.029272461 0.0010593668 0)
(0.027000358 0.00098391545 0)
(0.024855049 0.0009159149 0)
(0.022829945 0.00085435234 0)
(0.020918619 0.0007977605 0)
(0.019115842 0.00074485841 0)
(0.017417694 0.0006946984 0)
(0.015821313 0.00064664248 0)
(0.014324557 0.00060029841 0)
(0.012925684 0.00055546032 0)
(0.011623063 0.00051206056 0)
(0.010414944 0.00047012998 0)
(0.0092992879 0.00042976402 0)
(0.0082736491 0.00039109387 0)
(0.0073351184 0.00035426236 0)
(0.0064803141 0.00031940473 0)
(0.0057054125 0.00028663448 0)
(0.0050062104 0.00025603389 0)
(0.0043782078 0.00022764891 0)
(0.003816702 0.00020148766 0)
(0.0033168853 0.00017752194 0)
(0.0028739382 0.00015569071 0)
(0.0024831153 0.00013590513 0)
(0.0021398185 0.0001180542 0)
(0.0018396565 0.00010201064 0)
(0.0015784905 8.7636546e-05 0)
(0.0013524659 7.4788616e-05 0)
(0.0011580307 6.3322635e-05 0)
(0.00099194389 5.3097264e-05 0)
(0.00085127284 4.3977046e-05 0)
(0.00073338438 3.5834669e-05 0)
(0.00063592929 2.855255e-05 0)
(0.00055682287 2.2023816e-05 0)
(0.00049422265 1.615277e-05 0)
(0.00044650482 1.0854951e-05 0)
(0.00041223998 6.0569054e-06 0)
(0.0003901692 1.6958054e-06 0)
(0.00037918164 -2.2811848e-06 0)
(0.00037828658 -5.9206122e-06 0)
(0.00038661572 -9.2611959e-06 0)
(0.00040338805 -1.2332728e-05 0)
(0.00042789515 -1.5159076e-05 0)
(0.00045949041 -1.7759673e-05 0)
(0.00049757835 -2.015013e-05 0)
(0.00054160579 -2.2342896e-05 0)
(0.0005910544 -2.4347857e-05 0)
(0.00064543463 -2.6172891e-05 0)
(0.00070428092 -2.7824388e-05 0)
(0.0007671481 -2.9307698e-05 0)
(0.00083360874 -3.062751e-05 0)
(0.00090325134 -3.1788165e-05 0)
(0.00097567925 -3.2793897e-05 0)
(0.0010505101 -3.3649024e-05 0)
(0.0011273754 -3.4358082e-05 0)
(0.0012059212 -3.492592e-05 0)
(0.0012858078 -3.5357755e-05 0)
(0.0013667107 -3.5659201e-05 0)
(0.001448321 -3.5836265e-05 0)
(0.0015303459 -3.5895326e-05 0)
(0.0016125095 -3.5843099e-05 0)
(0.0016945527 -3.5686587e-05 0)
(0.0017762344 -3.5433016e-05 0)
(0.0018573309 -3.5089786e-05 0)
(0.0019376367 -3.466439e-05 0)
(0.0020169643 -3.4164364e-05 0)
(0.0020951439 -3.3597214e-05 0)
(0.0021720235 -3.2970358e-05 0)
(0.0022474685 -3.2291073e-05 0)
(0.0023213608 -3.1566444e-05 0)
(0.0023935992 -3.0803316e-05 0)
(0.0024640976 -3.0008257e-05 0)
(0.0025327853 -2.9187525e-05 0)
(0.0025996057 -2.8347045e-05 0)
(0.0026645156 -2.7492381e-05 0)
(0.0027274843 -2.6628726e-05 0)
(0.002788493 -2.5760892e-05 0)
(0.0028475335 -2.4893303e-05 0)
(0.0029046076 -2.4029995e-05 0)
(0.0029597263 -2.3174619e-05 0)
(0.0030129083 -2.2330448e-05 0)
(0.0030641801 -2.1500388e-05 0)
(0.0031135743 -2.0686987e-05 0)
(0.0031611292 -1.9892453e-05 0)
(0.0032068882 -1.9118665e-05 0)
(0.0032508985 -1.8367195e-05 0)
(0.0032932112 -1.7639323e-05 0)
(0.0033338797 -1.6936058e-05 0)
(0.0033729599 -1.6258156e-05 0)
(0.0034105094 -1.5606142e-05 0)
(0.0034465865 -1.4980323e-05 0)
(0.0034812507 -1.4380817e-05 0)
(0.0035145612 -1.3807566e-05 0)
(0.0035465773 -1.3260354e-05 0)
(0.0035773578 -1.2738829e-05 0)
(0.0036069605 -1.2242519e-05 0)
(0.0036354422 -1.1770849e-05 0)
(0.0036628583 -1.1323156e-05 0)
(0.0036892629 -1.0898705e-05 0)
(0.0037147083 -1.0496706e-05 0)
(0.0037392449 -1.0116323e-05 0)
(0.0037629216 -9.7566929e-06 0)
(0.0037857849 -9.4169301e-06 0)
(0.0038078797 -9.0961435e-06 0)
(0.0038292487 -8.7934436e-06 0)
(0.0038499328 -8.507952e-06 0)
(0.0038699708 -8.2388095e-06 0)
(0.0038893998 -7.9851829e-06 0)
(0.0039082549 -7.7462712e-06 0)
(0.0039265695 -7.5213105e-06 0)
(0.0039443753 -7.3095779e-06 0)
(0.0039617025 -7.1103951e-06 0)
(0.0039785798 -6.9231298e-06 0)
(0.0039950344 -6.7471975e-06 0)
(0.0040110924 -6.5820617e-06 0)
(0.0040267786 -6.4272335e-06 0)
(0.0040421169 -6.2822703e-06 0)
(0.0040571301 -6.1467736e-06 0)
(0.0040718401 -6.0203873e-06 0)
(0.004086268 -5.9027935e-06 0)
(0.0041004345 -5.7937096e-06 0)
(0.0041143592 -5.692884e-06 0)
(0.0041280615 -5.6000919e-06 0)
(0.0041415601 -5.5151305e-06 0)
(0.0041548733 -5.4378145e-06 0)
(0.0041680188 -5.3679715e-06 0)
(0.0041810142 -5.3054372e-06 0)
(0.0041938763 -5.2500507e-06 0)
(0.0042066218 -5.2016507e-06 0)
(0.0042192667 -5.1600713e-06 0)
(0.004231827 -5.1251386e-06 0)
(0.0042443177 -5.0966674e-06 0)
(0.0042567537 -5.074459e-06 0)
(0.0042691493 -5.0582989e-06 0)
(0.0042815182 -5.0479554e-06 0)
(0.0042938735 -5.0431793e-06 0)
(0.0043062278 -5.0437031e-06 0)
(0.0043185929 -5.0492421e-06 0)
(0.00433098 -5.0594946e-06 0)
(0.0043433995 -5.0741447e-06 0)
(0.004355861 -5.0928635e-06 0)
(0.0043683735 -5.1153124e-06 0)
(0.0043809451 -5.1411453e-06 0)
(0.004393583 -5.1700135e-06 0)
(0.0044062938 -5.2015677e-06 0)
(0.0044190831 -5.235463e-06 0)
(0.0044319559 -5.2713623e-06 0)
(0.0044449163 -5.3089405e-06 0)
(0.0044579678 -5.3478883e-06 0)
(0.0044711131 -5.3879158e-06 0)
(0.0044843546 -5.428756e-06 0)
(0.0044976936 -5.4701681e-06 0)
(0.0045111314 -5.5119398e-06 0)
(0.0045246685 -5.5538903e-06 0)
(0.0045383054 -5.5958714e-06 0)
(0.004552042 -5.6377692e-06 0)
(0.0045658781 -5.6795049e-06 0)
(0.0045798134 -5.721035e-06 0)
(0.0045938476 -5.7623509e-06 0)
(0.0046079803 -5.8034785e-06 0)
(0.0046222114 -5.8444768e-06 0)
(0.0046365407 -5.8854363e-06 0)
(0.0046509685 -5.9264777e-06 0)
(0.0046654953 -5.9677489e-06 0)
(0.0046801219 -6.0094245e-06 0)
(0.0046948496 -6.0517023e-06 0)
(0.0047096802 -6.0948031e-06 0)
(0.004724616 -6.1389688e-06 0)
(0.0047396597 -6.184463e-06 0)
(0.0047548149 -6.2315715e-06 0)
(0.0047700855 -6.2806063e-06 0)
(0.0047854765 -6.3319107e-06 0)
(0.0048009935 -6.3858689e-06 0)
(0.0048166429 -6.4429202e-06 0)
(0.0048324323 -6.5035814e-06 0)
(0.0048483707 -6.5684789e-06 0)
(0.0048644683 -6.638398e-06 0)
(0.0048807375 -6.7143571e-06 0)
(0.0048971933 -6.7977241e-06 0)
(0.0049138544 -6.8904055e-06 0)
(0.0049307445 -6.9951742e-06 0)
(0.0049478947 -7.1162751e-06 0)
(0.0049653481 -7.260639e-06 0)
(0.0049831668 -7.4404906e-06 0)
(0.0050014459 -7.6792881e-06 0)
(0.005020342 -8.0251988e-06 0)
(0.0050401333 -8.5802528e-06 0)
(0.0050612979 -9.5678751e-06 0)
(0.0050846197 -1.1513737e-05 0)
(0.0051124871 -1.5310077e-05 0)
(0.005155368 -2.1270731e-05 0)
(0.10341447 -0.0067456727 0)
(0.090507139 -0.0086979743 0)
(0.083157651 -0.0050989634 0)
(0.079058766 -0.0013221934 0)
(0.075703066 0.0013553195 0)
(0.072329259 0.0029166312 0)
(0.068825467 0.0036433449 0)
(0.065175727 0.0038642024 0)
(0.061433142 0.0038249734 0)
(0.057677621 0.0036711359 0)
(0.053972116 0.0034781067 0)
(0.050355754 0.0032802434 0)
(0.046851096 0.0030902718 0)
(0.04347061 0.0029109895 0)
(0.040221118 0.0027414045 0)
(0.03710677 0.0025795102 0)
(0.034130729 0.0024233913 0)
(0.031295898 0.0022715942 0)
(0.028605087 0.002123197 0)
(0.0260609 0.0019777642 0)
(0.023665495 0.0018352643 0)
(0.021420318 0.0016959754 0)
(0.019325864 0.0015603902 0)
(0.017381509 0.0014291261 0)
(0.015585413 0.001302846 0)
(0.013934502 0.001182191 0)
(0.012424523 0.0010677291 0)
(0.01105016 0.00095991791 0)
(0.0098051893 0.00085908331 0)
(0.0086826711 0.00076541035 0)
(0.0076751469 0.00067894523 0)
(0.0067748394 0.00059960548 0)
(0.0059738401 0.00052719597 0)
(0.0052642767 0.00046142811 0)
(0.0046384562 0.00040194071 0)
(0.0040889808 0.00034832041 0)
(0.0036088367 0.00030012104 0)
(0.0031914558 0.00025688074 0)
(0.0028307548 0.0002181367 0)
(0.0025211533 0.00018343713 0)
(0.0022575744 0.0001523507 0)
(0.002035432 0.00012447341 0)
(0.0018506078 9.9433246e-05 0)
(0.0016994206 7.6892878e-05 0)
(0.0015785907 5.6550802e-05 0)
(0.0014852025 3.8141166e-05 0)
(0.0014166658 2.1432719e-05 0)
(0.0013706776 6.2269887e-06 0)
(0.0013451908 -7.6471568e-06 0)
(0.0013383648 -2.0335944e-05 0)
(0.0013485464 -3.1957292e-05 0)
(0.001374243 -4.2608412e-05 0)
(0.0014140969 -5.2370573e-05 0)
(0.0014668639 -6.1310486e-05 0)
(0.0015313958 -6.948274e-05 0)
(0.0016066258 -7.6932133e-05 0)
(0.0016915559 -8.3695705e-05 0)
(0.0017852472 -8.9804507e-05 0)
(0.0018868119 -9.5285153e-05 0)
(0.0019954074 -0.00010016114 0)
(0.0021102314 -0.00010445395 0)
(0.0022305187 -0.00010818393 0)
(0.0023555391 -0.00011137098 0)
(0.0024845954 -0.00011403508 0)
(0.0026170234 -0.00011619663 0)
(0.0027521904 -0.00011787676 0)
(0.0028894962 -0.00011909742 0)
(0.0030283725 -0.00011988141 0)
(0.0031682835 -0.00012025244 0)
(0.0033087258 -0.00012023497 0)
(0.0034492291 -0.00011985412 0)
(0.0035893562 -0.00011913554 0)
(0.0037287026 -0.00011810519 0)
(0.0038668969 -0.0001167892 0)
(0.0040036004 -0.00011521365 0)
(0.0041385063 -0.0001134044 0)
(0.0042713396 -0.00011138693 0)
(0.0044018559 -0.00010918613 0)
(0.0045298407 -0.00010682619 0)
(0.0046551084 -0.00010433045 0)
(0.0047775009 -0.00010172129 0)
(0.0048968863 -9.9020001e-05 0)
(0.0050131581 -9.6246747e-05 0)
(0.0051262328 -9.3420473e-05 0)
(0.0052360494 -9.0558867e-05 0)
(0.005342567 -8.7678334e-05 0)
(0.0054457642 -8.4793976e-05 0)
(0.0055456365 -8.1919594e-05 0)
(0.0056421957 -7.90677e-05 0)
(0.0057354678 -7.6249535e-05 0)
(0.0058254918 -7.3475107e-05 0)
(0.0059123182 -7.0753225e-05 0)
(0.0059960075 -6.8091549e-05 0)
(0.006076629 -6.5496641e-05 0)
(0.0061542596 -6.2974022e-05 0)
(0.0062289824 -6.0528231e-05 0)
(0.0063008857 -5.8162889e-05 0)
(0.006370062 -5.5880762e-05 0)
(0.0064366067 -5.3683826e-05 0)
(0.0065006178 -5.1573333e-05 0)
(0.0065621944 -4.9549873e-05 0)
(0.0066214364 -4.7613444e-05 0)
(0.0066784437 -4.5763507e-05 0)
(0.0067333155 -4.3999052e-05 0)
(0.0067861498 -4.2318656e-05 0)
(0.0068370431 -4.0720541e-05 0)
(0.0068860897 -3.9202625e-05 0)
(0.0069333818 -3.7762578e-05 0)
(0.0069790086 -3.6397867e-05 0)
(0.0070230568 -3.5105808e-05 0)
(0.0070656097 -3.3883601e-05 0)
(0.0071067478 -3.2728379e-05 0)
(0.007146548 -3.1637237e-05 0)
(0.0071850844 -3.060727e-05 0)
(0.0072224274 -2.9635605e-05 0)
(0.0072586444 -2.871942e-05 0)
(0.0072937997 -2.7855979e-05 0)
(0.0073279546 -2.704264e-05 0)
(0.0073611672 -2.6276882e-05 0)
(0.007393493 -2.5556315e-05 0)
(0.0074249849 -2.4878687e-05 0)
(0.0074556932 -2.4241897e-05 0)
(0.007485666 -2.3643996e-05 0)
(0.0075149492 -2.3083189e-05 0)
(0.0075435866 -2.2557833e-05 0)
(0.0075716204 -2.2066436e-05 0)
(0.007599091 -2.1607646e-05 0)
(0.0076260374 -2.1180249e-05 0)
(0.0076524971 -2.0783151e-05 0)
(0.0076785064 -2.0415374e-05 0)
(0.0077041007 -2.0076038e-05 0)
(0.0077293141 -1.9764348e-05 0)
(0.0077541798 -1.9479581e-05 0)
(0.0077787302 -1.9221069e-05 0)
(0.007802997 -1.8988185e-05 0)
(0.0078270108 -1.8780326e-05 0)
(0.0078508017 -1.8596904e-05 0)
(0.0078743988 -1.8437323e-05 0)
(0.0078978305 -1.8300978e-05 0)
(0.0079211245 -1.8187234e-05 0)
(0.0079443074 -1.8095422e-05 0)
(0.007967405 -1.8024829e-05 0)
(0.0079904422 -1.7974693e-05 0)
(0.0080134429 -1.7944197e-05 0)
(0.0080364297 -1.7932468e-05 0)
(0.0080594243 -1.793858e-05 0)
(0.0080824472 -1.7961548e-05 0)
(0.0081055175 -1.8000339e-05 0)
(0.008128653 -1.8053876e-05 0)
(0.0081518702 -1.8121043e-05 0)
(0.0081751844 -1.8200696e-05 0)
(0.0081986093 -1.8291672e-05 0)
(0.0082221573 -1.83928e-05 0)
(0.0082458394 -1.8502915e-05 0)
(0.0082696651 -1.862087e-05 0)
(0.0082936429 -1.8745544e-05 0)
(0.0083177797 -1.8875862e-05 0)
(0.0083420813 -1.9010803e-05 0)
(0.0083665524 -1.9149413e-05 0)
(0.0083911968 -1.9290816e-05 0)
(0.008416017 -1.9434223e-05 0)
(0.0084410149 -1.9578942e-05 0)
(0.0084661918 -1.9724383e-05 0)
(0.0084915482 -1.9870067e-05 0)
(0.0085170842 -2.0015627e-05 0)
(0.0085427998 -2.0160812e-05 0)
(0.0085686944 -2.0305485e-05 0)
(0.0085947677 -2.0449626e-05 0)
(0.0086210194 -2.0593324e-05 0)
(0.0086474492 -2.0736777e-05 0)
(0.0086740574 -2.0880288e-05 0)
(0.0087008446 -2.1024253e-05 0)
(0.0087278118 -2.116916e-05 0)
(0.0087549608 -2.131558e-05 0)
(0.0087822941 -2.1464161e-05 0)
(0.0088098148 -2.1615626e-05 0)
(0.0088375271 -2.1770765e-05 0)
(0.008865436 -2.1930438e-05 0)
(0.0088935475 -2.2095582e-05 0)
(0.0089218686 -2.2267219e-05 0)
(0.0089504078 -2.2446474e-05 0)
(0.0089791746 -2.2634615e-05 0)
(0.0090081801 -2.2833094e-05 0)
(0.0090374371 -2.3043628e-05 0)
(0.0090669605 -2.3268312e-05 0)
(0.0090967679 -2.3509784e-05 0)
(0.0091268798 -2.3771488e-05 0)
(0.0091573215 -2.405808e-05 0)
(0.0091881238 -2.4376089e-05 0)
(0.0092193263 -2.4735029e-05 0)
(0.0092509806 -2.51494e-05 0)
(0.0092831569 -2.5642406e-05 0)
(0.0093159541 -2.6253245e-05 0)
(0.0093495175 -2.7051748e-05 0)
(0.0093840686 -2.816753e-05 0)
(0.0094199544 -2.9845513e-05 0)
(0.009457636 -3.2547409e-05 0)
(0.0094977031 -3.7130217e-05 0)
(0.0095425816 -4.4619923e-05 0)
(0.0096018897 -5.4386715e-05 0)
(0.11057344 -0.0003446745 0)
(0.10794589 0.0010697527 0)
(0.10431453 0.0031082387 0)
(0.10110938 0.0047407622 0)
(0.0983534 0.0059793187 0)
(0.095675184 0.0068971121 0)
(0.092846937 0.007486079 0)
(0.089765036 0.0077822111 0)
(0.086406515 0.0078586068 0)
(0.082803731 0.0077858037 0)
(0.079012672 0.007618773 0)
(0.075091469 0.0073963624 0)
(0.071092163 0.0071432681 0)
(0.067058856 0.00687344 0)
(0.063028277 0.0065938176 0)
(0.059031275 0.0063073233 0)
(0.055094368 0.0060149012 0)
(0.051240921 0.0057167954 0)
(0.047491851 0.0054132866 0)
(0.043865957 0.0051050605 0)
(0.04037997 0.004793339 0)
(0.037048437 0.0044798647 0)
(0.033883539 0.0041667994 0)
(0.030894902 0.0038565769 0)
(0.028089465 0.0035517412 0)
(0.02547143 0.0032547893 0)
(0.02304231 0.0029680347 0)
(0.020801079 0.0026934997 0)
(0.018744402 0.0024328413 0)
(0.016866935 0.0021873102 0)
(0.015161666 0.0019577405 0)
(0.013620271 0.0017445642 0)
(0.012233481 0.0015478458 0)
(0.01099141 0.0013673296 0)
(0.0098838694 0.0012024942 0)
(0.0089006239 0.0010526101 0)
(0.008031615 0.00091679533 0)
(0.0072671305 0.00079406726 0)
(0.0065979331 0.00068338839 0)
(0.0060153478 0.00058370515 0)
(0.0055113155 0.00049397946 0)
(0.0050784163 0.0004132133 0)
(0.0047098702 0.0003404667 0)
(0.0043995195 0.0002748699 0)
(0.0041417978 0.00021563054 0)
(0.0039316903 0.00016203672 0)
(0.0037646888 0.00011345679 0)
(0.0036367439 6.9336562e-05 0)
(0.0035442183 2.9195583e-05 0)
(0.0034838363 -7.3779436e-06 0)
(0.0034526454 -4.0737314e-05 0)
(0.0034479723 -7.1181798e-05 0)
(0.003467385 -9.8962992e-05 0)
(0.003508664 -0.00012429545 0)
(0.0035697736 -0.00014735983 0)
(0.0036488375 -0.00016830852 0)
(0.003744118 -0.00018727105 0)
(0.0038539991 -0.00020435886 0)
(0.0039769721 -0.00021966913 0)
(0.004111623 -0.00023328825 0)
(0.0042566238 -0.00024529464 0)
(0.0044107244 -0.00025576113 0)
(0.0045727466 -0.00026475684 0)
(0.0047415795 -0.00027234868 0)
(0.004916176 -0.00027860243 0)
(0.0050955496 -0.00028358357 0)
(0.0052787728 -0.00028735778 0)
(0.0054649749 -0.00028999128 0)
(0.0056533412 -0.00029155094 0)
(0.0058431114 -0.00029210421 0)
(0.0060335788 -0.00029171904 0)
(0.0062240892 -0.00029046363 0)
(0.0064140399 -0.00028840612 0)
(0.0066028788 -0.00028561427 0)
(0.0067901029 -0.00028215514 0)
(0.0069752573 -0.00027809472 0)
(0.0071579335 -0.00027349758 0)
(0.0073377679 -0.00026842654 0)
(0.0075144405 -0.00026294241 0)
(0.0076876725 -0.00025710367 0)
(0.0078572247 -0.00025096627 0)
(0.0080228957 -0.0002445834 0)
(0.0081845196 -0.00023800536 0)
(0.0083419638 -0.00023127939 0)
(0.008495127 -0.00022444963 0)
(0.0086439373 -0.00021755704 0)
(0.0087883493 -0.00021063936 0)
(0.0089283427 -0.00020373115 0)
(0.0090639196 -0.00019686379 0)
(0.0091951028 -0.00019006558 0)
(0.0093219336 -0.00018336177 0)
(0.0094444695 -0.00017677467 0)
(0.0095627828 -0.0001703238 0)
(0.0096769586 -0.00016402596 0)
(0.0097870928 -0.0001578954 0)
(0.0098932906 -0.00015194396 0)
(0.0099956653 -0.00014618121 0)
(0.010094336 -0.0001406146 0)
(0.010189427 -0.00013524965 0)
(0.010281066 -0.00013009006 0)
(0.010369384 -0.00012513789 0)
(0.010454513 -0.00012039374 0)
(0.010536585 -0.00011585685 0)
(0.010615732 -0.0001115253 0)
(0.010692085 -0.00010739612 0)
(0.010765773 -0.00010346545 0)
(0.010836924 -9.9728662e-05 0)
(0.01090566 -9.6180492e-05 0)
(0.010972103 -9.2815165e-05 0)
(0.011036371 -8.96265e-05 0)
(0.011098575 -8.6608027e-05 0)
(0.011158827 -8.3753076e-05 0)
(0.01121723 -8.1054872e-05 0)
(0.011273887 -7.850662e-05 0)
(0.011328894 -7.6101574e-05 0)
(0.011382344 -7.3833107e-05 0)
(0.011434325 -7.1694768e-05 0)
(0.011484923 -6.9680331e-05 0)
(0.011534217 -6.7783833e-05 0)
(0.011582287 -6.5999613e-05 0)
(0.011629205 -6.4322334e-05 0)
(0.011675041 -6.2746998e-05 0)
(0.011719865 -6.1268961e-05 0)
(0.011763739 -5.988393e-05 0)
(0.011806727 -5.8587966e-05 0)
(0.011848887 -5.7377468e-05 0)
(0.011890278 -5.6249163e-05 0)
(0.011930955 -5.5200083e-05 0)
(0.01197097 -5.4227538e-05 0)
(0.012010377 -5.3329095e-05 0)
(0.012049225 -5.2502541e-05 0)
(0.012087564 -5.1745851e-05 0)
(0.01212544 -5.1057155e-05 0)
(0.0121629 -5.04347e-05 0)
(0.012199988 -4.9876818e-05 0)
(0.012236749 -4.9381888e-05 0)
(0.012273225 -4.8948307e-05 0)
(0.012309458 -4.8574456e-05 0)
(0.012345486 -4.8258673e-05 0)
(0.012381351 -4.799923e-05 0)
(0.012417088 -4.779431e-05 0)
(0.012452733 -4.7641989e-05 0)
(0.012488323 -4.7540229e-05 0)
(0.012523888 -4.7486864e-05 0)
(0.012559462 -4.7479603e-05 0)
(0.012595074 -4.7516026e-05 0)
(0.012630752 -4.7593598e-05 0)
(0.012666521 -4.7709671e-05 0)
(0.012702407 -4.7861507e-05 0)
(0.012738432 -4.8046292e-05 0)
(0.012774615 -4.8261163e-05 0)
(0.012810976 -4.8503228e-05 0)
(0.01284753 -4.8769597e-05 0)
(0.012884293 -4.9057409e-05 0)
(0.012921277 -4.9363864e-05 0)
(0.012958493 -4.968625e-05 0)
(0.01299595 -5.0021977e-05 0)
(0.013033656 -5.0368603e-05 0)
(0.013071616 -5.072386e-05 0)
(0.013109835 -5.1085681e-05 0)
(0.013148316 -5.1452222e-05 0)
(0.013187062 -5.1821879e-05 0)
(0.013226074 -5.2193304e-05 0)
(0.013265354 -5.2565417e-05 0)
(0.013304899 -5.293741e-05 0)
(0.013344712 -5.3308755e-05 0)
(0.013384791 -5.36792e-05 0)
(0.013425136 -5.4048764e-05 0)
(0.013465746 -5.4417728e-05 0)
(0.013506622 -5.4786626e-05 0)
(0.013547764 -5.515623e-05 0)
(0.013589174 -5.5527532e-05 0)
(0.013630853 -5.5901729e-05 0)
(0.013672803 -5.6280206e-05 0)
(0.01371503 -5.6664519e-05 0)
(0.013757536 -5.7056387e-05 0)
(0.013800329 -5.7457679e-05 0)
(0.013843416 -5.7870419e-05 0)
(0.013886804 -5.8296792e-05 0)
(0.013930503 -5.8739177e-05 0)
(0.013974525 -5.9200186e-05 0)
(0.014018883 -5.9682745e-05 0)
(0.014063591 -6.0190207e-05 0)
(0.014108667 -6.0726528e-05 0)
(0.014154129 -6.1296524e-05 0)
(0.0142 -6.1906259e-05 0)
(0.014246307 -6.2563624e-05 0)
(0.01429308 -6.3279236e-05 0)
(0.014340358 -6.4067845e-05 0)
(0.014388188 -6.4950636e-05 0)
(0.014436629 -6.5959072e-05 0)
(0.01448576 -6.7141538e-05 0)
(0.014535683 -6.8575022e-05 0)
(0.014586535 -7.0385735e-05 0)
(0.014638501 -7.2784453e-05 0)
(0.014691827 -7.6123756e-05 0)
(0.014746718 -8.0965977e-05 0)
(0.014803282 -8.8120255e-05 0)
(0.014862936 -9.8188786e-05 0)
(0.014938338 -0.0001114223 0)
(0.11079825 0.00070592172 0)
(0.11021278 0.0020833718 0)
(0.10922304 0.003843819 0)
(0.10831734 0.0057063062 0)
(0.10746062 0.0073614342 0)
(0.1064136 0.0086958455 0)
(0.10505078 0.0096945243 0)
(0.10332629 0.010391518 0)
(0.10121831 0.010842645 0)
(0.098728426 0.011102495 0)
(0.095881003 0.011215916 0)
(0.092713845 0.011217649 0)
(0.089270729 0.011133309 0)
(0.085597453 0.010980759 0)
(0.081739644 0.010771921 0)
(0.077741588 0.010514598 0)
(0.073645788 0.010214019 0)
(0.06949288 0.0098740574 0)
(0.065321601 0.0094981387 0)
(0.061168696 0.0090898493 0)
(0.05706869 0.0086532867 0)
(0.05305356 0.008193195 0)
(0.049152331 0.0077149355 0)
(0.045390657 0.007224338 0)
(0.041790453 0.0067274797 0)
(0.038369615 0.0062304303 0)
(0.035141875 0.0057390002 0)
(0.032116797 0.0052585162 0)
(0.029299931 0.0047936448 0)
(0.026693097 0.0043482716 0)
(0.024294774 0.0039254398 0)
(0.022100569 0.0035273414 0)
(0.020103726 0.0031553553 0)
(0.018295643 0.0028101194 0)
(0.016666367 0.0024916262 0)
(0.015205056 0.0021993313 0)
(0.013900376 0.0019322648 0)
(0.012740849 0.0016891399 0)
(0.011715121 0.0014684522 0)
(0.010812183 0.0012685668 0)
(0.010021521 0.0010877927 0)
(0.0093332275 0.000924442 0)
(0.0087380604 0.00077687681 0)
(0.0082274746 0.00064354282 0)
(0.0077936225 0.0005229927 0)
(0.0074293352 0.00041390005 0)
(0.0071280895 0.00031506591 0)
(0.0068839657 0.00022541947 0)
(0.0066915994 0.00014401474 0)
(0.0065461323 7.002338e-05 0)
(0.0064431606 2.7260066e-06 0)
(0.0063786899 -5.8499126e-05 0)
(0.0063490913 -0.00011418813 0)
(0.0063510461 -0.00016479945 0)
(0.0063815222 -0.00021073269 0)
(0.0064377387 -0.00025233175 0)
(0.0065171374 -0.00028989364 0)
(0.0066173571 -0.00032367744 0)
(0.0067362131 -0.00035391162 0)
(0.0068716787 -0.00038080018 0)
(0.0070218691 -0.00040452795 0)
(0.0071850289 -0.00042526499 0)
(0.0073595215 -0.00044317021 0)
(0.0075438192 -0.00045839431 0)
(0.0077364967 -0.00047108206 0)
(0.007936224 -0.00048137405 0)
(0.0081417616 -0.00048940788 0)
(0.0083519557 -0.00049531907 0)
(0.0085657347 -0.00049924155 0)
(0.0087821055 -0.00050130788 0)
(0.0090001504 -0.00050164928 0)
(0.0092190246 -0.00050039548 0)
(0.009437953 -0.00049767445 0)
(0.0096562281 -0.00049361206 0)
(0.0098732071 -0.00048833165 0)
(0.010088309 -0.00048195365 0)
(0.010301014 -0.00047459508 0)
(0.010510858 -0.00046636919 0)
(0.010717432 -0.00045738502 0)
(0.010920378 -0.00044774709 0)
(0.011119387 -0.00043755506 0)
(0.011314199 -0.00042690347 0)
(0.011504594 -0.00041588156 0)
(0.011690396 -0.00040457306 0)
(0.011871464 -0.00039305612 0)
(0.012047696 -0.00038140327 0)
(0.012219019 -0.00036968136 0)
(0.012385393 -0.00035795164 0)
(0.012546804 -0.00034626982 0)
(0.012703263 -0.00033468619 0)
(0.012854804 -0.00032324574 0)
(0.013001481 -0.00031198838 0)
(0.013143365 -0.00030094909 0)
(0.013280545 -0.00029015816 0)
(0.01341312 -0.00027964143 0)
(0.013541204 -0.00026942053 0)
(0.013664919 -0.00025951312 0)
(0.013784395 -0.0002499332 0)
(0.013899768 -0.00024069134 0)
(0.014011181 -0.00023179496 0)
(0.01411878 -0.0002232486 0)
(0.01422271 -0.00021505421 0)
(0.014323122 -0.00020721136 0)
(0.014420165 -0.00019971758 0)
(0.014513985 -0.00019256853 0)
(0.01460473 -0.00018575829 0)
(0.014692544 -0.00017927957 0)
(0.014777569 -0.00017312395 0)
(0.014859943 -0.00016728209 0)
(0.014939799 -0.00016174389 0)
(0.015017269 -0.00015649873 0)
(0.015092478 -0.00015153562 0)
(0.015165548 -0.00014684333 0)
(0.015236596 -0.00014241059 0)
(0.015305734 -0.00013822617 0)
(0.01537307 -0.00013427901 0)
(0.015438708 -0.00013055833 0)
(0.015502746 -0.00012705372 0)
(0.01556528 -0.00012375516 0)
(0.0156264 -0.00012065317 0)
(0.015686193 -0.00011773876 0)
(0.015744742 -0.00011500351 0)
(0.015802128 -0.00011243957 0)
(0.015858427 -0.00011003969 0)
(0.015913712 -0.00010779716 0)
(0.015968056 -0.00010570587 0)
(0.016021526 -0.00010376019 0)
(0.016074189 -0.00010195502 0)
(0.016126108 -0.00010028571 0)
(0.016177346 -9.8747989e-05 0)
(0.016227964 -9.733797e-05 0)
(0.016278019 -9.6052046e-05 0)
(0.016327569 -9.4886847e-05 0)