/*--------------------------------*- C++ -*----------------------------------*\
| =========                 |                                                 |
| \\      /  F ield         | OpenFOAM: The Open Source CFD Toolbox           |
|  \\    /   O peration     | Version:  2406                                  |
|   \\  /    A nd           | Website:  www.openfoam.com                      |
|    \\/     M anipulation  |                                                 |
\*---------------------------------------------------------------------------*/
FoamFile
{
    version     2.0;
    format      ascii;
    arch        "LSB;label=32;scalar=64";
    class       surfaceScalarField;
    location    "1317";
    object      phi;
}
// * * * * * * * * * * * * * * * * * * * * * * * * * * * * * * * * * * * * * //

dimensions      [0 3 -1 0 0 0 0];

oriented        oriented;

internalField   nonuniform List<scalar> 
17356
(
-3.5126917e-14
3.5126917e-14
-1.0865966e-13
7.353274e-14
-1.8426115e-13
7.5601491e-14
-2.3858173e-13
5.4320581e-14
-2.6345532e-13
2.4873587e-14
-2.5978343e-13
-3.6718883e-15
-2.3276581e-13
-2.7017613e-14
-1.8890589e-13
-4.3859924e-14
-1.3439997e-13
-5.4505921e-14
-7.4431851e-14
-5.9968119e-14
-1.298665e-14
-6.1445201e-14
4.7071606e-14
-6.0058256e-14
1.0381515e-13
-5.6743544e-14
1.5605359e-13
-5.2238443e-14
2.0314599e-13
-4.7092403e-14
2.448451e-13
-4.1699103e-14
2.811754e-13
-3.6330303e-14
3.1234125e-13
-3.1165849e-14
3.3865945e-13
-2.6318197e-14
3.6051093e-13
-2.1851488e-14
3.7830684e-13
-1.7795909e-14
3.9246512e-13
-1.415828e-14
4.0339488e-13
-1.0929752e-14
4.1148623e-13
-8.0913579e-15
4.171042e-13
-5.6179713e-15
4.2058532e-13
-3.4811157e-15
4.2223625e-13
-1.6509277e-15
4.2233375e-13
-9.750648e-17
4.2112555e-13
1.2082094e-15
4.1883167e-13
2.2938772e-15
4.1564638e-13
3.1852878e-15
4.1174017e-13
3.9062055e-15
4.0726187e-13
4.4783008e-15
4.023407e-13
4.9211698e-15
3.9708829e-13
5.2524092e-15
3.9160057e-13
5.4877258e-15
3.859595e-13
5.6410663e-15
3.8023475e-13
5.7247572e-15
3.744851e-13
5.7496477e-15
3.6875985e-13
5.7252503e-15
3.6309997e-13
5.6598761e-15
3.5753921e-13
5.5607617e-15
3.5210502e-13
5.4341882e-15
3.4681943e-13
5.2855895e-15
3.4169978e-13
5.1196517e-15
3.3675938e-13
4.9404024e-15
3.3200809e-13
4.7512916e-15
3.2745282e-13
4.555263e-15
3.23098e-13
4.3548187e-15
3.1894593e-13
4.1520753e-15
3.1499711e-13
3.9488143e-15
3.1125059e-13
3.7465266e-15
3.0770414e-13
3.5464505e-15
3.0435453e-13
3.3496066e-15
3.011977e-13
3.1568274e-15
2.9822892e-13
2.9687831e-15
2.9544292e-13
2.7860046e-15
2.9283401e-13
2.6089034e-15
2.9039622e-13
2.4377889e-15
2.8812334e-13
2.2728833e-15
2.86009e-13
2.1143347e-15
2.8404678e-13
1.9622284e-15
2.8223018e-13
1.816597e-15
2.8055275e-13
1.6774286e-15
2.7900808e-13
1.544674e-15
2.7758982e-13
1.4182537e-15
2.7629176e-13
1.2980625e-15
2.7510778e-13
1.1839751e-15
2.7403194e-13
1.0758494e-15
2.730584e-13
9.7353026e-16
2.7218155e-13
8.7685263e-16
2.7139591e-13
7.856438e-16
2.7069618e-13
6.9972564e-16
2.7007727e-13
6.1891648e-16
2.6953423e-13
5.4303255e-16
2.6906234e-13
4.7188933e-16
2.6865704e-13
4.0530263e-16
2.6831395e-13
3.4308944e-16
2.6802888e-13
2.850687e-16
2.6779782e-13
2.3106191e-16
2.6761693e-13
1.8089361e-16
2.6748253e-13
1.3439177e-16
2.6739115e-13
9.1388102e-17
2.6733943e-13
5.171831e-17
2.673242e-13
1.5222265e-17
2.6734246e-13
-1.8255844e-17
2.6739133e-13
-4.8867451e-17
2.6746809e-13
-7.6759558e-17
2.6757016e-13
-1.0207466e-16
2.6769511e-13
-1.2495078e-16
2.6784063e-13
-1.4552147e-16
2.6800455e-13
-1.6391581e-16
2.6818481e-13
-1.8025848e-16
2.6837948e-13
-1.9466981e-16
2.6858674e-13
-2.0726576e-16
2.688049e-13
-2.1815809e-16
2.6903235e-13
-2.2745431e-16
2.6926761e-13
-2.3525784e-16
2.6950928e-13
-2.4166803e-16
2.6975606e-13
-2.4678022e-16
2.7000674e-13
-2.5068585e-16
2.7026021e-13
-2.5347253e-16
2.7051544e-13
-2.5522408e-16
2.7077146e-13
-2.5602062e-16
2.710274e-13
-2.5593869e-16
2.7128245e-13
-2.5505125e-16
2.7153587e-13
-2.5342784e-16
2.7178701e-13
-2.5113457e-16
2.7203524e-13
-2.4823428e-16
2.7228003e-13
-2.4478659e-16
2.7252087e-13
-2.4084794e-16
2.7275734e-13
-2.3647176e-16
2.7298905e-13
-2.3170848e-16
2.7321566e-13
-2.2660562e-16
2.7343686e-13
-2.2120792e-16
2.7365242e-13
-2.155574e-16
2.7386211e-13
-2.0969342e-16
2.7406576e-13
-2.0365283e-16
2.7426323e-13
-1.9746999e-16
2.7445441e-13
-1.9117689e-16
2.7463921e-13
-1.8480327e-16
2.7481759e-13
-1.7837665e-16
2.7498951e-13
-1.7192244e-16
2.7515497e-13
-1.6546404e-16
2.7531399e-13
-1.5902293e-16
2.7546661e-13
-1.5261874e-16
2.7561288e-13
-1.4626933e-16
2.7575287e-13
-1.3999091e-16
2.7588667e-13
-1.3379808e-16
2.7601437e-13
-1.2770393e-16
2.7613609e-13
-1.2172016e-16
2.7625194e-13
-1.1585708e-16
2.7636206e-13
-1.1012376e-16
2.7646659e-13
-1.0452806e-16
2.7656567e-13
-9.9076718e-17
2.7665944e-13
-9.3775435e-17
2.7674807e-13
-8.862892e-17
2.7683171e-13
-8.3640977e-17
2.7691052e-13
-7.8814554e-17
2.7698467e-13
-7.4151818e-17
2.7705432e-13
-6.9654202e-17
2.7711965e-13
-6.5322478e-17
2.771808e-13
-6.1156793e-17
2.7723796e-13
-5.7156741e-17
2.7729128e-13
-5.3321394e-17
2.7734092e-13
-4.9649368e-17
2.7738706e-13
-4.613885e-17
2.7742985e-13
-4.2787657e-17
2.7746944e-13
-3.9593261e-17
2.7750599e-13
-3.6552843e-17
2.7753965e-13
-3.366331e-17
2.7757058e-13
-3.0921351e-17
2.775989e-13
-2.8323442e-17
2.7762476e-13
-2.5865905e-17
2.7764831e-13
-2.3544902e-17
2.7766966e-13
-2.1356496e-17
2.7768896e-13
-1.9296638e-17
2.7770632e-13
-1.7361223e-17
2.7772187e-13
-1.5546079e-17
2.7773571e-13
-1.3847013e-17
2.7774797e-13
-1.2259801e-17
2.7775875e-13
-1.0780231e-17
2.7776816e-13
-9.4040863e-18
2.7777629e-13
-8.1271905e-18
2.7778323e-13
-6.9453862e-18
2.7778909e-13
-5.8545764e-18
2.7779394e-13
-4.8507026e-18
2.7779787e-13
-3.9297844e-18
2.7780096e-13
-3.0878948e-18
2.7780328e-13
-2.321198e-18
2.7780491e-13
-1.625924e-18
2.7780591e-13
-9.9840439e-19
2.7780635e-13
-4.3504606e-19
2.7780628e-13
6.7634181e-20
2.7780577e-13
5.1303628e-19
2.7780487e-13
9.0444344e-19
2.7780363e-13
1.245048e-18
2.7780209e-13
1.5379191e-18
2.7780031e-13
1.786026e-18
2.7779832e-13
1.9922067e-18
2.7779617e-13
2.1591871e-18
2.7779388e-13
2.2895484e-18
2.777915e-13
2.3857415e-18
2.7778905e-13
2.45005e-18
2.7778657e-13
2.4845981e-18
2.7778408e-13
2.4913084e-18
2.7778162e-13
2.471906e-18
2.7777919e-13
2.4278763e-18
2.7777684e-13
2.3604861e-18
2.7777457e-13
2.2707789e-18
2.7777241e-13
2.1596949e-18
2.7777039e-13
2.0282456e-18
2.7776852e-13
1.8779828e-18
2.7776681e-13
1.7118171e-18
2.7776528e-13
1.5354399e-18
2.7776392e-13
1.3600612e-18
2.7776272e-13
1.2063465e-18
2.7776162e-13
1.1089202e-18
2.7776049e-13
1.1249328e-18
1.3671486e-18
-8.6865417e-14
1.2199233e-13
-2.3854619e-13
2.2521351e-13
-3.802491e-13
2.173044e-13
-4.7145865e-13
1.4553013e-13
-4.9904891e-13
5.2463844e-14
-4.6675444e-13
-3.5966361e-14
-3.8620728e-13
-1.0756477e-13
-2.7124466e-13
-1.5882254e-13
-1.3485306e-13
-1.9089752e-13
1.2141148e-14
-2.0696233e-13
1.6137171e-13
-2.1067577e-13
3.0676743e-13
-2.0545397e-13
4.4419507e-13
-1.9417118e-13
5.7104183e-13
-1.7908521e-13
6.8584556e-13
-1.6189613e-13
7.8798545e-13
-1.4383899e-13
8.774367e-13
-1.2578155e-13
9.5458252e-13
-1.0831166e-13
1.0200733e-12
-9.180897e-14
1.074723e-12
-7.6501202e-14
1.1194341e-12
-6.2507016e-14
1.1551439e-12
-4.9868076e-14
1.182787e-12
-3.8572795e-14
1.2032694e-12
-2.8573779e-14
1.217452e-12
-1.980057e-14
1.2261398e-12
-1.2168907e-14
1.2300762e-12
-5.5873883e-15
1.2299409e-12
3.7786637e-17
1.2263495e-12
4.7995949e-15
1.2198555e-12
8.7879085e-15
1.210953e-12
1.2087821e-14
1.2000804e-12
1.4778745e-14
1.1876248e-12
1.6933956e-14
1.1739255e-12
1.8620439e-14
1.159279e-12
1.9898967e-14
1.1439424e-12
2.0824306e-14
1.1281379e-12
2.1445532e-14
1.1120563e-12
2.18064e-14
1.0958602e-12
2.1945742e-14
1.0796875e-12
2.1897882e-14
1.0636544e-12
2.1693044e-14
1.0478574e-12
2.1357746e-14
1.0323764e-12
2.0915175e-14
1.0172765e-12
2.0385539e-14
1.0026097e-12
1.9786392e-14
9.8841718e-13
1.913293e-14
9.7473021e-13
1.8438265e-14
9.6157181e-13
1.7713668e-14
9.4895784e-13
1.6968789e-14
9.3689805e-13
1.6211857e-14
9.2539701e-13
1.5449855e-14
9.1445486e-13
1.4688675e-14
9.0406806e-13
1.3933259e-14
8.9422994e-13
1.3187723e-14
8.849313e-13
1.2455462e-14
8.7616084e-13
1.1739248e-14
8.6790553e-13
1.1041314e-14
8.6015101e-13
1.0363427e-14
8.5288184e-13
9.7069512e-15
8.4608182e-13
9.0729092e-15
8.3973413e-13
8.462027e-15
8.3382157e-13
7.874779e-15
8.2832675e-13
7.3114258e-15
8.2323213e-13
6.7720466e-15
8.1852023e-13
6.256568e-15
8.141737e-13
5.7647888e-15
8.1017536e-13
5.2964013e-15
8.0650832e-13
4.8510101e-15
8.0315603e-13
4.428148e-15
8.0010227e-13
4.0272903e-15
7.9733125e-13
3.647866e-15
7.9482763e-13
3.2892688e-15
7.9257649e-13
2.9508654e-15
7.905634e-13
2.6320033e-15
7.8877442e-13
2.3320168e-15
7.8719607e-13
2.0502329e-15
7.858154e-13
1.7859754e-15
7.8461992e-13
1.5385689e-15
7.8359764e-13
1.3073422e-15
7.8273708e-13
1.0916306e-15
7.8202719e-13
8.9077832e-16
7.8145744e-13
7.0414035e-16
7.8101775e-13
5.3108371e-16
7.8069847e-13
3.7098874e-16
7.8049045e-13
2.2324995e-16
7.8038491e-13
8.7276784e-17
7.8037355e-13
-3.7505878e-17
7.8044845e-13
-1.5165736e-16
7.806021e-13
-2.5572098e-16
7.8082737e-13
-3.5022377e-16
7.8111752e-13
-4.3567652e-16
7.8146618e-13
-5.1257371e-16
7.8186731e-13
-5.8139358e-16
7.8231524e-13
-6.4259822e-16
7.8280461e-13
-6.9663367e-16
7.8333038e-13
-7.4393013e-16
7.8388783e-13
-7.8490208e-16
7.8447252e-13
-8.1994856e-16
7.850803e-13
-8.4945333e-16
7.8570731e-13
-8.7378514e-16
7.8634992e-13
-8.9329794e-16
7.8700478e-13
-9.0833118e-16
7.8766876e-13
-9.1921001e-16
7.8833899e-13
-9.262456e-16
7.8901278e-13
-9.2973538e-16
7.8968769e-13
-9.2996332e-16
7.9036146e-13
-9.272002e-16
7.9103203e-13
-9.2170393e-16
7.9169752e-13
-9.1371981e-16
7.9235621e-13
-9.0348083e-16
7.9300657e-13
-8.9120797e-16
7.9364721e-13
-8.7711053e-16
7.9427688e-13
-8.6138639e-16
7.948945e-13
-8.4422237e-16
7.9549908e-13
-8.257945e-16
7.9608979e-13
-8.062684e-16
7.966659e-13
-7.8579955e-16
7.9722678e-13
-7.6453366e-16
7.9777191e-13
-7.4260696e-16
7.9830088e-13
-7.2014656e-16
7.9881335e-13
-6.9727077e-16
7.9930906e-13
-6.7408945e-16
7.9978784e-13
-6.5070429e-16
8.0024958e-13
-6.2720923e-16
8.0069425e-13
-6.036907e-16
8.0112186e-13
-5.8022801e-16
8.0153248e-13
-5.5689364e-16
8.0192624e-13
-5.3375358e-16
8.0230331e-13
-5.1086764e-16
8.0266389e-13
-4.8828975e-16
8.0300824e-13
-4.660683e-16
8.0333663e-13
-4.4424639e-16
8.0364936e-13
-4.2286219e-16
8.0394678e-13
-4.0194917e-16
8.0422924e-13
-3.8153639e-16
8.0449711e-13
-3.6164881e-16
8.0475079e-13
-3.423075e-16
8.0499067e-13
-3.2352994e-16
8.0521719e-13
-3.0533024e-16
8.0543075e-13
-2.8771939e-16
8.056318e-13
-2.7070549e-16
8.0582077e-13
-2.5429397e-16
8.059981e-13
-2.3848778e-16
8.0616423e-13
-2.2328763e-16
8.063196e-13
-2.0869216e-16
8.0646465e-13
-1.946981e-16
8.0659981e-13
-1.813005e-16
8.0672551e-13
-1.6849286e-16
8.0684218e-13
-1.5626727e-16
8.0695024e-13
-1.4461459e-16
8.070501e-13
-1.335246e-16
8.0714216e-13
-1.2298607e-16
8.0722683e-13
-1.1298695e-16
8.0730447e-13
-1.0351443e-16
8.0737548e-13
-9.4555102e-17
8.0744022e-13
-8.6095002e-17
8.0749904e-13
-7.8119746e-17
8.075523e-13
-7.061459e-17
8.0760032e-13
-6.3564525e-17
8.0764342e-13
-5.6954334e-17
8.0768193e-13
-5.0768678e-17
8.0771614e-13
-4.4992134e-17
8.0774635e-13
-3.9609273e-17
8.0777283e-13
-3.4604692e-17
8.0779585e-13
-2.9963074e-17
8.0781566e-13
-2.5669219e-17
8.0783252e-13
-2.1708089e-17
8.0784666e-13
-1.8064834e-17
8.078583e-13
-1.4724832e-17
8.0786765e-13
-1.1673702e-17
8.0787492e-13
-8.8973447e-18
8.0788031e-13
-6.3819469e-18
8.0788399e-13
-4.1140178e-18
8.0788614e-13
-2.0803901e-18
8.0788693e-13
-2.6825262e-19
8.078865e-13
1.3348496e-18
8.0788501e-13
2.7409848e-18
8.0788259e-13
3.9618331e-18
8.0787937e-13
5.008655e-18
8.0787547e-13
5.8922853e-18
8.0787101e-13
6.6230964e-18
8.078661e-13
7.2109832e-18
8.0786082e-13
7.6653158e-18
8.0785528e-13
7.9949107e-18
8.0784956e-13
8.2079698e-18
8.0784375e-13
8.3120399e-18
8.0783791e-13
8.3139493e-18
8.0783212e-13
8.2197885e-18
8.0782645e-13
8.034912e-18
8.0782097e-13
7.7640744e-18
8.0781572e-13
7.4117354e-18
8.0781077e-13
6.982759e-18
8.0780617e-13
6.4836973e-18
8.0780196e-13
5.9250456e-18
8.0779818e-13
5.3250425e-18
8.0779483e-13
4.7152124e-18
8.0779189e-13
4.147921e-18
8.077893e-13
3.704175e-18
8.0778692e-13
3.4995083e-18
3.6498503e-18
-1.1774264e-13
2.3973497e-13
-2.9788297e-13
4.0535385e-13
-4.419732e-13
3.6139463e-13
-5.0921048e-13
2.1276741e-13
-4.9314822e-13
3.6401584e-14
-4.0476579e-13
-1.243488e-13
-2.6155713e-13
-2.5077343e-13
-8.1493088e-14
-3.3888658e-13
1.1971619e-13
-3.921068e-13
3.2949422e-13
-4.1674036e-13
5.3839201e-13
-4.1957356e-13
7.3966739e-13
-4.0672935e-13
9.287604e-13
-3.832642e-13
1.1028089e-12
-3.5313369e-13
1.2602297e-12
-3.1931699e-13
1.4003811e-12
-2.8399036e-13
1.5232981e-12
-2.4869857e-13
1.6294901e-12
-2.145036e-13
1.7197866e-12
-1.821055e-13
1.7952223e-12
-1.519369e-13
1.8569506e-12
-1.2423528e-13
1.9061801e-12
-9.9097636e-14
1.9441288e-12
-7.6521476e-14
1.9719904e-12
-5.6435392e-14
1.9909117e-12
-3.8721882e-14
2.0019771e-12
-2.3234255e-14
2.0061988e-12
-9.8091207e-15
2.0045121e-12
1.7245027e-15
1.9977728e-12
1.1538865e-14
1.9867582e-12
1.9802559e-14
1.9721689e-12
2.6677128e-14
1.9546327e-12
3.2314952e-14
1.9347086e-12
3.6858024e-14
1.9128917e-12
4.0437352e-14
1.8896178e-12
4.3172809e-14
1.8652688e-12
4.5173305e-14
1.8401772e-12
4.6537186e-14
1.8146308e-12
4.7352775e-14
1.7888775e-12
4.7699015e-14
1.7631293e-12
4.7646157e-14
1.7375658e-12
4.7256463e-14
1.7123387e-12
4.6584909e-14
1.687574e-12
4.5679863e-14
1.6633758e-12
4.4583735e-14
1.6398286e-12
4.3333582e-14
1.6169999e-12
4.1961675e-14
1.5949421e-12
4.0496019e-14
1.5736949e-12
3.8960831e-14
1.5532868e-12
3.7376968e-14
1.5337363e-12
3.5762322e-14
1.515054e-12
3.4132168e-14
1.4972432e-12
3.2499484e-14
1.4803012e-12
3.0875229e-14
1.4642203e-12
2.9268595e-14
1.4489886e-12
2.7687232e-14
1.4345904e-12
2.6137442e-14
1.4210073e-12
2.4624358e-14
1.4082187e-12
2.3152097e-14
1.3962017e-12
2.1723895e-14
1.3849324e-12
2.034223e-14
1.3743855e-12
1.9008924e-14
1.364535e-12
1.772524e-14
1.3553545e-12
1.6491957e-14
1.3468171e-12
1.5309449e-14
1.3388959e-12
1.417774e-14
1.3315642e-12
1.3096563e-14
1.3247951e-12
1.2065403e-14
1.3185626e-12
1.1083543e-14
1.3128407e-12
1.0150095e-14
1.3076039e-12
9.2640353e-15
1.3028276e-12
8.4242267e-15
1.2984874e-12
7.6294452e-15
1.2945599e-12
6.8783984e-15
1.2910221e-12
6.1697425e-15
1.287852e-12
5.5020973e-15
1.2850282e-12
4.8740584e-15
1.28253e-12
4.2842078e-15
1.2803374e-12
3.731123e-15
1.2784314e-12
3.2133845e-15
1.2767934e-12
2.729582e-15
1.2754059e-12
2.2783198e-15
1.2742518e-12
1.8582212e-15
1.273315e-12
1.467932e-15
1.2725798e-12
1.1061233e-15
1.2720316e-12
7.7149407e-16
1.2716561e-12
4.6277295e-16
1.2714399e-12
1.7871959e-16
1.2713701e-12
-8.1874126e-17
1.2714345e-12
-3.2018339e-16
1.2716217e-12
-5.3734992e-16
1.2719205e-12
-7.3448155e-16
1.2723205e-12
-9.1265206e-16
1.272812e-12
-1.0729012e-15
1.2733857e-12
-1.2162345e-15
1.2740327e-12
-1.3436238e-15
1.2747448e-12
-1.4560071e-15
1.2755141e-12
-1.5542891e-15
1.2763335e-12
-1.6393416e-15
1.2771961e-12
-1.7120036e-15
1.2780954e-12
-1.7730821e-15
1.2790254e-12
-1.8233523e-15
1.2799807e-12
-1.8635582e-15
1.2809559e-12
-1.8944132e-15
1.2819462e-12
-1.9166003e-15
1.2829472e-12
-1.9307731e-15
1.2839548e-12
-1.9375562e-15
1.2849652e-12
-1.9375454e-15
1.2859748e-12
-1.931309e-15
1.2869805e-12
-1.9193877e-15
1.2879793e-12
-1.9022957e-15
1.2889686e-12
-1.8805212e-15
1.289946e-12
-1.8545269e-15
1.2909094e-12
-1.8247508e-15
1.2918567e-12
-1.7916068e-15
1.2927864e-12
-1.7554855e-15
1.2936969e-12
-1.7167547e-15
1.2945869e-12
-1.6757602e-15
1.2954552e-12
-1.6328264e-15
1.2963008e-12
-1.5882572e-15
1.297123e-12
-1.5423364e-15
1.2979211e-12
-1.4953287e-15
1.2986945e-12
-1.4474804e-15
1.2994428e-12
-1.39902e-15
1.3001657e-12
-1.3501586e-15
1.3008631e-12
-1.3010914e-15
1.3015349e-12
-1.2519977e-15
1.302181e-12
-1.2030418e-15
1.3028017e-12
-1.1543739e-15
1.3033969e-12
-1.1061304e-15
1.3039671e-12
-1.0584351e-15
1.3045124e-12
-1.0113992e-15
1.3050333e-12
-9.6512258e-16
1.3055301e-12
-9.1969396e-16
1.3060033e-12
-8.7519183e-16
1.3064535e-12
-8.3168489e-16
1.3068811e-12
-7.8923271e-16
1.3072866e-12
-7.4788628e-16
1.3076708e-12
-7.0768857e-16
1.3080341e-12
-6.6867505e-16
1.3083773e-12
-6.3087425e-16
1.3087009e-12
-5.943082e-16
1.3090056e-12
-5.5899296e-16
1.309292e-12
-5.2493906e-16
1.3095609e-12
-4.9215192e-16
1.3098128e-12
-4.6063232e-16
1.3100485e-12
-4.3037675e-16
1.3102686e-12
-4.0137782e-16
1.3104737e-12
-3.7362461e-16
1.3106646e-12
-3.4710304e-16
1.3108417e-12
-3.2179614e-16
1.3110059e-12
-2.9768441e-16
1.3111577e-12
-2.7474609e-16
1.3112976e-12
-2.529574e-16
1.3114264e-12
-2.3229284e-16
1.3115446e-12
-2.127254e-16
1.3116527e-12
-1.942268e-16
1.3117514e-12
-1.7676765e-16
1.3118411e-12
-1.6031771e-16
1.3119223e-12
-1.44846e-16
1.3119957e-12
-1.30321e-16
1.3120617e-12
-1.167108e-16
1.3121206e-12
-1.039832e-16
1.3121731e-12
-9.210588e-17
1.3122196e-12
-8.1046507e-17
1.3122604e-12
-7.077281e-17
1.312296e-12
-6.1252704e-17
1.3123267e-12
-5.245436e-17
1.312353e-12
-4.4346292e-17
1.3123752e-12
-3.6897416e-17
1.3123936e-12
-3.0077126e-17
1.3124085e-12
-2.3855337e-17
1.3124204e-12
-1.8202545e-17
1.3124293e-12
-1.308987e-17
1.3124357e-12
-8.4890979e-18
1.3124399e-12
-4.3727203e-18
1.3124419e-12
-7.139743e-19
1.3124421e-12
2.5131272e-18
1.3124408e-12
5.3337504e-18
1.312438e-12
7.7722095e-18
1.312434e-12
9.8519158e-18
1.3124291e-12
1.1595336e-17
1.3124233e-12
1.3023927e-17
1.3124168e-12
1.4158077e-17
1.3124098e-12
1.501702e-17
1.3124024e-12
1.5618753e-17
1.3123947e-12
1.5979945e-17
1.3123869e-12
1.6115862e-17
1.3123791e-12
1.6040325e-17
1.3123713e-12
1.5765787e-17
1.3123638e-12
1.5303588e-17
1.3123566e-12
1.4664586e-17
1.3123497e-12
1.3860393e-17
1.3123433e-12
1.2905586e-17
1.3123374e-12
1.1821423e-17
1.3123321e-12
1.0641494e-17
1.3123274e-12
9.4199347e-18
1.3123233e-12
8.2412932e-18
1.3123197e-12
7.2291754e-18
1.3123167e-12
6.544979e-18
6.3658299e-18
-1.3383355e-13
3.7356853e-13
-2.9767294e-13
5.6919323e-13
-3.8361491e-13
4.4733661e-13
-3.6784063e-13
1.9699313e-13
-2.6200053e-13
-6.9438519e-14
-8.8835171e-14
-2.9751415e-13
1.2863146e-13
-4.6824005e-13
3.7111816e-13
-5.8137329e-13
6.2385534e-13
-6.4484398e-13
8.7607969e-13
-6.6896471e-13
1.1202132e-12
-6.6370707e-13
1.3511071e-12
-6.3762328e-13
1.5654296e-12
-5.9758665e-13
1.7611972e-12
-5.4890133e-13
1.9374247e-12
-4.9554444e-13
2.0938624e-12
-4.4042805e-13
2.2307987e-12
-3.8563491e-13
2.3489092e-12
-3.3261414e-13
2.4491403e-12
-2.823366e-13
2.532619e-12
-2.3541556e-13
2.6005828e-12
-1.9219912e-13
2.6543259e-12
-1.5284067e-13
2.6951569e-12
-1.1735249e-13
2.724368e-12
-8.5646493e-14
2.7432113e-12
-5.7565225e-14
2.7528824e-12
-3.290535e-14
2.7545087e-12
-1.1435436e-14
2.7491424e-12
7.090816e-15
2.7377563e-12
2.2925037e-14
2.7212425e-12
3.6316276e-14
2.7004139e-12
4.7505731e-14
2.6760057e-12
5.6723214e-14
2.6486788e-12
6.4184891e-14
2.6190242e-12
7.0091961e-14
2.587567e-12
7.4630051e-14
2.5547711e-12
7.7969141e-14
2.5210444e-12
8.0263871e-14
2.4867431e-12
8.1654122e-14
2.4521763e-12
8.2265782e-14
2.4176109e-12
8.2211617e-14
2.3832751e-12
8.1592215e-14
2.3493631e-12
8.0496945e-14
2.316038e-12
7.9004912e-14
2.2834359e-12
7.7185884e-14
2.2516683e-12
7.5101177e-14
2.2208255e-12
7.2804494e-14
2.1909788e-12
7.03427e-14
2.1621831e-12
6.7756545e-14
2.1344787e-12
6.5081327e-14
2.1078935e-12
6.2347495e-14
2.0824445e-12
5.9581198e-14
2.0581392e-12
5.680478e-14
2.0349772e-12
5.4037232e-14
2.0129512e-12
5.1294585e-14
1.9920482e-12
4.8590278e-14
1.9722501e-12
4.5935472e-14
1.9535352e-12
4.3339339e-14
1.9358779e-12
4.0809315e-14
1.9192505e-12
3.8351326e-14
1.9036228e-12
3.5969984e-14
1.8889629e-12
3.3668768e-14
1.875238e-12
3.1450177e-14
1.8624141e-12
2.9315868e-14
1.8504567e-12
2.7266774e-14
1.8393313e-12
2.5303214e-14
1.8290029e-12
2.3424983e-14
1.8194368e-12
2.1631433e-14
1.8105988e-12
1.9921546e-14
1.8024549e-12
1.8293996e-14
1.7949718e-12
1.6747201e-14
1.7881166e-12
1.5279371e-14
1.7818575e-12
1.3888549e-14
1.7761633e-12
1.2572646e-14
1.7710035e-12
1.1329471e-14
1.7663489e-12
1.0156756e-14
1.7621707e-12
9.0521816e-15
1.7584416e-12
8.013394e-15
1.7551347e-12
7.038021e-15
1.7522244e-12
6.1236865e-15
1.7496859e-12
5.2680223e-15
1.7474956e-12
4.4686777e-15
1.7456305e-12
3.7233275e-15
1.7440687e-12
3.0296794e-15
1.7427893e-12
2.385479e-15
1.7417723e-12
1.7885149e-15
1.7409985e-12
1.2366217e-15
1.7404495e-12
7.2768389e-16
1.740108e-12
2.5963737e-16
1.7399573e-12
-1.6952832e-16
1.7399818e-12
-5.6176897e-16
1.7401663e-12
-9.1898473e-16
1.7404966e-12
-1.2430195e-15
1.7409594e-12
-1.5356605e-15
1.7415418e-12
-1.7986383e-15
1.7422318e-12
-2.0336267e-15
1.743018e-12
-2.242243e-15
1.7438898e-12
-2.4260485e-15
1.744837e-12
-2.5865485e-15
1.7458502e-12
-2.7251936e-15
1.7469205e-12
-2.8433796e-15
1.7480396e-12
-2.9424486e-15
1.7491997e-12
-3.0236898e-15
1.7503936e-12
-3.0883398e-15
1.7516146e-12
-3.1375842e-15
1.7528564e-12
-3.1725578e-15
1.7541132e-12
-3.1943458e-15
1.7553796e-12
-3.2039849e-15
1.7566508e-12
-3.2024638e-15
1.7579221e-12
-3.1907247e-15
1.7591895e-12
-3.1696641e-15
1.7604491e-12
-3.1401336e-15
1.7616975e-12
-3.1029415e-15
1.7629316e-12
-3.0588535e-15
1.7641486e-12
-3.0085937e-15
1.765346e-12
-2.9528464e-15
1.7665215e-12
-2.8922563e-15
1.7676731e-12
-2.8274305e-15
1.7687993e-12
-2.7589393e-15
1.7698983e-12
-2.6873173e-15
1.770969e-12
-2.6130648e-15
1.7720104e-12
-2.5366489e-15
1.7730214e-12
-2.4585049e-15
1.7740014e-12
-2.3790371e-15
1.7749499e-12
-2.2986204e-15
1.7758664e-12
-2.2176015e-15
1.7767507e-12
-2.1362997e-15
1.7776026e-12
-2.0550085e-15
1.7784223e-12
-1.9739966e-15
1.7792096e-12
-1.8935093e-15
1.779965e-12
-1.8137691e-15
1.7806886e-12
-1.7349774e-15
1.7813807e-12
-1.6573153e-15
1.782042e-12
-1.5809449e-15
1.7826728e-12
-1.5060101e-15
1.7832738e-12
-1.4326378e-15
1.7838455e-12
-1.3609391e-15
1.7843886e-12
-1.2910097e-15
1.7849038e-12
-1.2229314e-15
1.7853919e-12
-1.156773e-15
1.7858536e-12
-1.0925909e-15
1.7862898e-12
-1.0304299e-15
1.7867011e-12
-9.7032453e-16
1.7870885e-12
-9.1229938e-16
1.7874527e-12
-8.5637005e-16
1.7877946e-12
-8.0254379e-16
1.788115e-12
-7.508203e-16
1.7884148e-12
-7.0119228e-16
1.7886949e-12
-6.5364613e-16
1.7889559e-12
-6.0816253e-16
1.7891988e-12
-5.6471699e-16
1.7894244e-12
-5.2328038e-16
1.7896335e-12
-4.8381943e-16
1.7898268e-12
-4.4629724e-16
1.7900052e-12
-4.1067366e-16
1.7901694e-12
-3.7690576e-16
1.7903201e-12
-3.4494817e-16
1.7904581e-12
-3.1475347e-16
1.7905841e-12
-2.8627252e-16
1.7906987e-12
-2.5945475e-16
1.7908026e-12
-2.3424847e-16
1.7908965e-12
-2.1060113e-16
1.790981e-12
-1.8845956e-16
1.7910566e-12
-1.6777017e-16
1.7911241e-12
-1.4847921e-16
1.7911838e-12
-1.305329e-16
1.7912364e-12
-1.1387762e-16
1.7912824e-12
-9.8460079e-17
1.7913223e-12
-8.4227429e-17
1.7913566e-12
-7.1127414e-17
1.7913856e-12
-5.9108469e-17
1.7914099e-12
-4.8119832e-17
1.7914298e-12
-3.8111632e-17
1.7914457e-12
-2.9034979e-17
1.7914581e-12
-2.0842039e-17
1.7914672e-12
-1.348611e-17
1.7914734e-12
-6.921688e-18
1.791477e-12
-1.1045356e-18
1.7914783e-12
4.0082538e-18
1.7914776e-12
8.4581827e-18
1.7914752e-12
1.2285281e-17
1.7914713e-12
1.552802e-17
1.7914661e-12
1.8223224e-17
1.7914598e-12
2.0405963e-17
1.7914527e-12
2.2109438e-17
1.791445e-12
2.3364856e-17
1.7914368e-12
2.4201307e-17
1.7914283e-12
2.4645668e-17
1.7914196e-12
2.4722579e-17
1.7914109e-12
2.445457e-17
1.7914023e-12
2.3862484e-17
1.791394e-12
2.2966397e-17
1.7913861e-12
2.1787364e-17
1.7913787e-12
2.0350466e-17
1.7913718e-12
1.8689662e-17
1.7913656e-12
1.6855238e-17
1.7913601e-12
1.4924048e-17
1.7913553e-12
1.3012081e-17
1.7913513e-12
1.1286003e-17
1.7913478e-12
9.9703526e-18
9.3593878e-18
-1.3629387e-13
5.0986239e-13
-2.2761216e-13
6.6051153e-13
-1.8196601e-13
4.0169045e-13
-1.8972016e-14
3.3999136e-14
2.2039017e-13
-3.088007e-13
5.0062876e-13
-5.7775275e-13
7.9677856e-13
-7.6438985e-13
1.0930759e-12
-8.7767058e-13
1.380099e-12
-9.3186716e-13
1.652353e-12
-9.412187e-13
1.9066778e-12
-9.1803183e-13
2.1413067e-12
-8.7225222e-13
2.3553404e-12
-8.1162031e-13
2.5484585e-12
-7.4201946e-13
2.7207586e-12
-6.6784456e-13
2.8726575e-12
-5.9232691e-13
3.0048226e-12
-5.1780005e-13
3.1181182e-12
-4.4590967e-13
3.2135582e-12
-3.7777668e-13
3.2922657e-12
-3.1412302e-13
3.3554352e-12
-2.5536866e-13
3.4043013e-12
-2.0170674e-13
3.4401105e-12
-1.5316171e-13
3.4640988e-12
-1.0963473e-13
3.4774725e-12
-7.0938973e-14
3.4813943e-12
-3.6827149e-14
3.4769718e-12
-7.0128933e-15
3.4652493e-12
1.8813262e-14
3.4472032e-12
4.0971139e-14
3.423739e-12
5.978055e-14
3.3956903e-12
7.5554402e-14
3.3638197e-12
8.8593767e-14
3.3288202e-12
9.9184455e-14
3.2913173e-12
1.0759481e-13
3.2518729e-12
1.1407447e-13
3.2109882e-12
1.1885383e-13
3.169108e-12
1.221441e-13
3.1266244e-12
1.2413772e-13
3.0838811e-12
1.2500908e-13
3.0411772e-12
1.2491549e-13
2.9987713e-12
1.2399816e-13
2.9568848e-12
1.2238338e-13
2.9157061e-12
1.201836e-13
2.8753934e-12
1.1749863e-13
2.8360779e-12
1.1441667e-13
2.7978669e-12
1.1101545e-13
2.7608465e-12
1.0736318e-13
2.7250835e-12
1.0351948e-13
2.6906285e-12
9.9536331e-14
2.6575172e-12
9.5458782e-14
2.6257727e-12
9.1325764e-14
2.5954067e-12
8.717073e-14
2.5664217e-12
8.302228e-14
2.5388115e-12
7.8904714e-14
2.5125633e-12
7.4838535e-14
2.4876579e-12
7.0840895e-14
2.4640712e-12
6.6926005e-14
2.441775e-12
6.3105497e-14
2.4207376e-12
5.9388739e-14
2.4009244e-12
5.5783133e-14
2.3822988e-12
5.2294365e-14
2.3648224e-12
4.8926633e-14
2.3484554e-12
4.568285e-14
2.3331574e-12
4.2564818e-14
2.3188872e-12
3.9573392e-14
2.3056036e-12
3.670861e-14
2.2932652e-12
3.3969822e-14
2.2818309e-12
3.1355793e-14
2.2712601e-12
2.8864799e-14
2.2615126e-12
2.6494705e-14
2.2525489e-12
2.4243044e-14
2.2443304e-12
2.2107071e-14
2.2368192e-12
2.0083824e-14
2.2299785e-12
1.8170166e-14
2.2237725e-12
1.6362829e-14
2.2181662e-12
1.4658449e-14
2.213126e-12
1.3053592e-14
2.2086192e-12
1.1544787e-14
2.2046144e-12
1.012854e-14
2.2010811e-12
8.8013602e-15
2.19799e-12
7.5597691e-15
2.195313e-12
6.4003192e-15
2.193023e-12
5.3196025e-15
2.1910943e-12
4.3142603e-15
2.1895018e-12
3.3809912e-15
2.1882219e-12
2.5165571e-15
2.1872317e-12
1.7177886e-15
2.1865098e-12
9.8158883e-16
2.1860353e-12
3.0493695e-16
2.1857887e-12
-3.1510942e-16
2.1857511e-12
-8.8141256e-16
2.1859048e-12
-1.3967532e-15
2.186233e-12
-1.8638297e-15
2.1867196e-12
-2.2852574e-15
2.1873496e-12
-2.6635686e-15
2.1881085e-12
-3.0012122e-15
2.188983e-12
-3.3005542e-15
2.1899604e-12
-3.5638783e-15
2.1910286e-12
-3.7933862e-15
2.1921764e-12
-3.9911987e-15
2.1933933e-12
-4.1593564e-15
2.1946694e-12
-4.2998207e-15
2.1959955e-12
-4.414475e-15
2.1973631e-12
-4.5051255e-15
2.198764e-12
-4.5735029e-15
2.200191e-12
-4.6212635e-15
2.201637e-12
-4.6499901e-15
2.2030957e-12
-4.6611942e-15
2.2045613e-12
-4.6563167e-15
2.2060283e-12
-4.6367297e-15
2.2074919e-12
-4.6037381e-15
2.2089476e-12
-4.558581e-15
2.2103912e-12
-4.5024333e-15
2.211819e-12
-4.4364076e-15
2.2132277e-12
-4.3615553e-15
2.2146143e-12
-4.2788689e-15
2.2159762e-12
-4.1892836e-15
2.2173109e-12
-4.0936787e-15
2.2186165e-12
-3.9928797e-15
2.219891e-12
-3.88766e-15
2.2211331e-12
-3.7787427e-15
2.2223414e-12
-3.6668023e-15
2.2235149e-12
-3.5524668e-15
2.2246526e-12
-3.4363192e-15
2.2257539e-12
-3.3188992e-15
2.2268183e-12
-3.2007055e-15
2.2278455e-12
-3.0821972e-15
2.2288353e-12
-2.9637956e-15
2.2297876e-12
-2.845886e-15
2.2307027e-12
-2.7288194e-15
2.2315806e-12
-2.6129143e-15
2.2324218e-12
-2.4984583e-15
2.2332265e-12
-2.3857096e-15
2.2339954e-12
-2.2748987e-15
2.234729e-12
-2.1662302e-15
2.2354279e-12
-2.0598839e-15
2.236093e-12
-1.9560167e-15
2.2367248e-12
-1.8547634e-15
2.2373242e-12
-1.7562391e-15
2.2378922e-12
-1.6605394e-15
2.2384295e-12
-1.5677428e-15
2.2389371e-12
-1.4779108e-15
2.2394159e-12
-1.3910903e-15
2.2398668e-12
-1.3073138e-15
2.2402909e-12
-1.226601e-15
2.240689e-12
-1.1489596e-15
2.2410622e-12
-1.0743865e-15
2.2414114e-12
-1.0028688e-15
2.2417377e-12
-9.3438437e-16
2.2420418e-12
-8.6890299e-16
2.2423249e-12
-8.0638712e-16
2.2425879e-12
-7.4679262e-16
2.2428317e-12
-6.9006948e-16
2.2430572e-12
-6.361625e-16
2.2432653e-12
-5.8501194e-16
2.2434569e-12
-5.365541e-16
2.2436329e-12
-4.9072185e-16
2.243794e-12
-4.4744521e-16
2.2439412e-12
-4.0665174e-16
2.2440752e-12
-3.6826708e-16
2.2441969e-12
-3.3221527e-16
2.2443068e-12
-2.9841919e-16
2.2444058e-12
-2.6680088e-16
2.2444946e-12
-2.3728187e-16
2.2445739e-12
-2.0978344e-16
2.2446442e-12
-1.8422695e-16
2.2447063e-12
-1.6053403e-16
2.2447607e-12
-1.3862679e-16
2.244808e-12
-1.1842808e-16
2.2448488e-12
-9.9861632e-17
2.2448835e-12
-8.2852212e-17
2.2449127e-12
-6.7325805e-17
2.2449369e-12
-5.3209734e-17
2.2449565e-12
-4.0432789e-17
2.2449719e-12
-2.8925339e-17
2.2449836e-12
-1.8619454e-17
2.244992e-12
-9.4489975e-18
2.2449973e-12
-1.3497403e-18
2.245e-12
5.7405389e-18
2.2450004e-12
1.188194e-17
2.2449988e-12
1.7132327e-17
2.2449955e-12
2.1547193e-17
2.2449907e-12
2.5179526e-17
2.2449848e-12
2.8079646e-17
2.2449778e-12
3.0295054e-17
2.2449702e-12
3.1870278e-17
2.244962e-12
3.2846768e-17
2.2449534e-12
3.3262882e-17
2.2449447e-12
3.3154086e-17
2.244936e-12
3.2553505e-17
2.2449275e-12
3.1493094e-17
2.2449193e-12
3.0005817e-17
2.2449115e-12
2.8129309e-17
2.2449043e-12
2.591179e-17
2.2448977e-12
2.342087e-17
2.2448919e-12
2.0756167e-17
2.2448869e-12
1.8065517e-17
2.2448826e-12
1.5562674e-17
2.244879e-12
1.3545962e-17
1.245779e-17
-1.0761787e-13
6.1748027e-13
-3.3000393e-14
5.8589405e-13
2.4299498e-13
1.2569508e-13
6.1917639e-13
-3.4218228e-13
1.0215195e-12
-7.1114379e-13
1.411075e-12
-9.6730826e-13
1.7712347e-12
-1.1245495e-12
2.0975619e-12
-1.2039977e-12
2.3910336e-12
-1.2253389e-12
2.6543796e-12
-1.2045647e-12
2.8904673e-12
-1.1541196e-12
3.1017432e-12
-1.0835281e-12
3.2901464e-12
-1.0000235e-12
3.4572013e-12
-9.0907439e-13
3.6041513e-12
-8.1479451e-13
3.7320767e-12
-7.2025233e-13
3.841982e-12
-6.277054e-13
3.9348514e-12
-5.3877901e-13
4.0116787e-12
-4.5460403e-13
4.0734804e-12
-3.7592466e-13
4.1212954e-12
-3.0318369e-13
4.1561791e-12
-2.3659041e-13
4.1791927e-12
-1.761753e-13
4.1913919e-12
-1.21834e-13
4.1938157e-12
-7.3362773e-14
4.1874756e-12
-3.048703e-14
4.1733466e-12