/*--------------------------------*- C++ -*----------------------------------*\
| =========                 |                                                 |
| \\      /  F ield         | OpenFOAM: The Open Source CFD Toolbox           |
|  \\    /   O peration     | Version:  2406                                  |
|   \\  /    A nd           | Website:  www.openfoam.com                      |
|    \\/     M anipulation  |                                                 |
\*---------------------------------------------------------------------------*/
FoamFile
{
    version     2.0;
    format      ascii;
    arch        "LSB;label=32;scalar=64";
    class       volScalarField;
    location    "1317";
    object      T;
}
// * * * * * * * * * * * * * * * * * * * * * * * * * * * * * * * * * * * * * //

dimensions      [0 0 0 0 0 0 0];

internalField   nonuniform List<scalar> 
8800
(
1
1
1
1
1
1
1
1
1
1
1
1
1
1
1
1
1
1
1
1
1
1
1
1
1
1
1
1
1
1
1
1
1
1
1
1
1
1
1
1
1
1
1
1
1
1
1
1
1
1
1
1
1
1
1
1
1
1
1
1
1
1
1
1
1
1
1
1
1
1
1
1
1
1
1
1
1
1
1
1
1
1
1
1
1
1
1
1
1
1
1
1
1
1
1
1
1
1
1
1
1
1
1
1
1
1
1
1
1
1
1
1
1
1
1
1
1
1
1
1
1
1
1
1
1
1
1
1
1
1
1
1
1
1
1
1
1
1
1
1
1
1
1
1
1
1
1
1
1
1
1
1
1
1
1
1
1
1
1
1
1
1
1
1
1
1
1
1
1
1
1
1
1
1
1
1
1
1
1
1
1
1
1
1
1
1
1
1
1
1
1
1
1
1
1
1
1
1
1
1
1
1
1
1
1
1
1
1
1
1
1
1
1
1
1
1
1
1
1
1
1
1
1
1
1
1
1
1
1
1
1
1
1
1
1
1
1
1
1
1
1
1
1
1
1
1
1
1
1
1
1
1
1
1
1
1
1
1
1
1
1
1
1
1
1
1
1
1
1
1
1
1
1
1
1
1
1
1
1
1
1
1
1
1
1
1
1
1
1
1
1
1
1
1
1
1
1
1
1
1
1
1
1
1
1
1
1
1
1
1
1
1
1
1
1
1
1
1
1
1
1
1
1
1
1
1
1
1
1
1
1
1
1
1
1
1
1
1
1
1
1
1
1
1
1
1
1
1
1
1
1
1
1
1
1
1
1
1
1
1
1
1
1
1
1
1
1
1
1
1
1
1
1
1
1
1
1
1
1
1
1
1
1
1
1
1
1
1
1
1
1
1
1
1
1
1
1
1
1
1
1
1
1
1
1
1
1
1
1
1
1
1
1
1
1
1
1
1
1
1
1
1
1
1
1
1
1
1
1
1
1
1
1
1
1
1
1
1
1
1
1
1
1
1
1
1
1
1
1
1
1
1
1
1
1
1
1
1
1
1
1
1
1
1
1
1
1
1
1
1
1
1
1
1
1
1
1
1
1
1
1
1
1
1
1
1
1
1
1
1
1
1
1
1
1
1
1
1
1
1
1
1
1
1
1
1
1
1
1
1
1
1
1
1
1
1
1
1
1
1
1
1
1
1
1
1
1
1
1
1
1
1
1
1
1
1
1
1
1
1
1
1
1
1
1
1
1
1
1
1
1
1
1
1
1
1
1
1
1
1
1
1
1
1
1
1
1
1
1
1
1
1
1
1
1
1
1
1
1
1
1
1
1
1
1
1
1
1
1
1
1
1
1
1
1
1
1
1
1
1
1
1
1
1
1
1
1
1
1
1
1
1
1
1
1
1
1
1
1
1
1
1
1
1
1
1
1
1
1
1
1
1
1
1
1
1
1
1
1
1
1
1
1
1
1
1
1
1
1
1
1
1
1
1
1
1
1
1
1
1
1
1
1
1
1
1
1
1
1
1
1
1
1
1
1
1
1
1
1
1
1
1
1
1
1
1
1
1
1
1
1
1
1
1
1
1
1
1
1
1
1
1
1
1
1
1
1
1
1
1
1
1
1
1
1
1
1
1
1
1
1
1
1
1
1
1
1
1
1
1
1
1
1
1
1
1
1
1
1
1
1
1
1
1
1
1
1
1
1
1
1
1
1
1
1
1
1
1
1
1
1
1
1
1
1
1
1
1
1
1
1
1
1
1
1
1
1
1
1
1
1
1
1
1
1
1
1
1
1
1
1
1
1
1
1
1
1
1
1
1
1
1
1
1
1
1
1
1
1
1
1
1
1
1
1
1
1
1
1
1
1
1
1
1
1
1
1
1
1
1
1
1
1
1
1
1
1
1
1
1
1
1
1
1
1
1
1
1
1
1
1
1
1
1
1
1
1
1
1
1
1
1
1
1
1
1
1
1
1
1
1
1
1
1
1
1
1
1
1
1
1
1
1
1
1
1
1
1
1
1
1
1
1
1
1
1
1
1
1
1
1
1
1
1
1
1
1
1
1
1
1
1
1
1
1
1
1
1
1
1
1
1
1
1
1
1
1
1
1
1
1
1
1
1
1
1
1
1
1
1
1
1
1
1
1
1
1
1
1
1
1
1
1
1
1
1
1
1
1
1
1
1
1
1
1
1
1
1
1
1
1
1
1
1
1
1
1
1
1
1
1
1
1
1
1
1
1
1
1
1
1
1
1
1
1
1
1
1
1
1
1
1
1
1
1
1
1
1
1
1
1
1
1
1
1
1
1
1
1
1
1
1
1
1
1
1
1
1
1
1
1
1
1
1
1
1
1
1
1
1
1
1
1
1
1
1
1
1
1
1
1
1
1
1
1
1
1
1
1
1
1
1
1
1
1
1
1
1
1
1
1
1
1
1
1
1
1
1
1
1
1
1
1
1
1
1
1
1
1
1
1
1
1
1
1
1
1
1
1
1
1
1
1
1
1
1
1
1
1
1
1
1
1
1
1
1
1
1
1
1
1
1
1
1
1
1
1
1
1
1
1
1
1
1
1
1
1
1
1
1
1
1
1
1
1
1
1
1
1
1
1
1
1
1
1
1
1
1
1
1
1
1
1
1
1
1
1
1
1
1
1
1
1
1
1
1
1
1
1
1
1
1
1
1
1
1
1
1
1
1
1
1
1
1
1
1
1
1
1
1
1
1
1
1
1
1
1
1
1
1
1
1
1
1
1
1
1
1
1
1
1
1
1
1
1
1
1
1
1
1
1
1
1
1
1
1
1
1
1
1
1
1
1
1
1
1
1
1
1
1
1
1
1
1
1
1
1
1
1
1
1
1
1
1
1
1
1
1
1
1
1
1
1
1
1
1
1
1
1
1
1
1
1
1
1
1
1
1
1
1
1
1
1
1
1
1
1
1
1
1
1
1
1
1
1
1
1
1
1
1
1
1
1
1
1
1
1
1
1
1
1
1
1
1
1
1
1
1
1
1
1
1
1
1
1
1
1
1
1
1
1
1
1
1
1
1
1
1
1
1
1
1
1
1
1
1
1
1
1
1
1
1
1
1
1
1
1
1
1
1
1
1
1
1
1
1
1
1
1
1
1
1
1
1
1
1
1
1
1
1
1
1
1
1
1
1
1
1
1
1
1
1
1
1
1
1
1
1
1
1
1
1
1
1
1
1
1
1
1
1
1
1
1
1
1
1
1
1
1
1
1
1
1
1
1
1
1
1
1
1
1
1
1
1
1
1
1
1
1
1
1
1
1
1
1
1
1
1
1
1
1
1
1
1
1
1
1
1
1
1
1
1
1
1
1
1
1
1
1
1
1
1
1
1
1
1
1
1
1
1
1
1
1
1
1
1
1
1
1
1
1
1
1
1
1
1
1
1
1
1
1
1
1
1
1
1
1
1
1
1
1
1
1
1
1
1
1
1
1
1
1
1
1
1
1
1
1
1
1
1
1
1
1
1
1
1
1
1
1
1
1
1
1
1
1
1
1
1
1
1
1
1
1
1
1
1
1
1
1
1
1
1
1
1
1
1
1
1
1
1
1
1
1
1
1
1
1
1
1
1
1
1
1
1
1
1
1
1
1
1
1
1
1
1
1
1
1
1
1
1
1
1
1
1
1
1
1
1
1
1
1
1
1
1
1
1
1
1
1
1
1
1
1
1
1
1
1
1
1
1
1
1
1
1
1
1
1
1
1
1
1
1
1
1
1
1
1
1
1
1
1
1
1
1
1
1
1
1
1
1
1
1
1
1
1
1
1
1
1
1
1
1
1
1
1
1
1
1
1
1
1
1
1
1
1
1
1
1
1
1
1
1
1
1
1
1
1
1
1
1
1
1
1
1
1
1
1
1
1
1
1
1
1
1
1
1
1
1
1
1
1
1
1
1
1
1
1
1
1
1
1
1
1
1
1
1
1
1
1
1
1
1
1
1
1
1
1
1
1
1
1
1
1
1
1
1
1
1
1
1
1
1
1
1
1
1
1
1
1
1
1
1
1
1
1
1
1
1
1
1
1
1
1
1
1
1
1
1
1
1
1
1
1
1
1
1
1
1
1
1
1
1
1
1
1
1
1
1
1
1
1
1
1
1
1
1
1
1
1
1
1
1
1
1
1
1
1
1
1
1
1
1
1
1
1
1
1
1
1
1
1
1
1
1
1
1
1
1
1
1
1
1
1
1
1
1
1
1
1
1
1
1
1
1
1
1
1
1
1
1
1
1
1
1
1
1
1
1
1
1
1
1
1
1
1
1
1
1
1
1
1
1
1
1
1
1
1
1
1
1
1
1
1
1
1
1
1
1
1
1
1
1
1
1
1
1
1
1
1
1
1
1
1
1
1
1
1
1
1
1
1
1
1
1
1
1
1
1
1
1
1
1
1
1
1
1
1
1
1
1
1
1
1
1
1
1
1
1
1
1
1
1
1
1
1
1
1
1
1
1
1
1
1
1
1
1
1
1
1
1
1
1
1
1
1
1
1
1
1
1
1
1
1
1
1
1
1
1
1
1
1
1
1
1
1
1
1
1
1
1
1
1
1
1
1
1
1
1
1
1
1
1
1
1
1
1
1
1
1
1
1
1
1
1
1
1
1
1
1
1
1
1
1
1
1
1
1
1
1
1
1
1
1
1
1
1
1
1
1
1
1
1
1
1
1
1
1
1
1
1
1
1
1
1
1
1
1
1
1
1
1
1
1
1
1
1
1
1
1
1
1
1
1
1
1
1
1
1
1
1
1
1
1
1
1
1
1
1
1
1
1
1
1
1
1
1
1
1
1
1
1
1
1
1
1
1
1
1
1
1
1
1
1
1
1
1
1
1
1
1
1
1
1
1
1
1
1
1
1
1
1
1
1
1
1
1
1
1
1
1
1
1
1
1
1
1
1
1
1
1
1
1
1
1
1
1
1
1
1
1
1
1
1
1
1
1
1
1
1
1
1
1
1
1
1
1
1
1
1
1
1
1
1
1
1
1
1
1
1
1
1
1
1
1
1
1
1
1
1
1
1
1
1
1
1
1
1
1
1
1
1
1
1
1
1
1
1
1
1
1
1
1
1
1
1
1
1
1
1
1
1
1
1
1
1
1
1
1
1
1
1
1
1
1
1
1
1
1
1
1
1
1
1
1
1
1
1
1
1
1
1
1
1
1
1
1
1
1
1
1
1
1
1
1
1
1
1
1
1
1
1
1
1
1
1
1
1
1
1
1
1
1
1
1
1
1
1
1
1
1
1
1
1
1
1
1
1
1
1
1
1
1
1
1
1
1
1
1
1
1
1
1
1
1
1
1
1
1
1
1
1
1
1
1
1
1
1
1
1
1
1
1
1
1
1
1
1
1
1
1
1
1
1
1
1
1
1
1
1
1
1
1
1
1
1
1
1
1
1
1
1
1
1
1
1
1
1
1
1
1
1
1
1
1
1
1
1
1
1
1
1
1
1
1
1
1
1
1
1
1
1
1
1
1
1
1
1
1
1
1
1
1
1
1
1
1
1
1
1
1
1
1
1
1
1
1
1
1
1
1
1
1
1
1
1
1
1
1
1
1
1
1
1
1
1
1
1
1
1
1
1
1
1
1
1
1
1
1
1
1
1
1
1
1
1
1
1
1
1
1
1
1
1
1
1
1
1
1
1
1
1
1
1
1
1
1
1
1
1
1
1
1
1
1
1
1
1
1
1
1
1
1
1
1
1
1
1
1
1
1
1
1
1
1
1
1
1
1
1
1
1
1
1
1
1
1
1
1
1
1
1
1
1
1
1
1
1
1
1
1
1
1
1
1
1
1
1
1
1
1
1
1
1
1
1
1
1
1
1
1
1
1
1
1
1
1
1
1
1
1
1
1
1
1
1
1
1
1
1
1
1
1
1
1
1
1
1
1
1
1
1
1
1
1
1
1
1
1
1
1
1
1
1
1
1
1
1
1
1
1
1
1
1
1
1
1
1
1
1
1
1
1
1
1
1
1
1
1
1
1
1
1
1
1
1
1
1
1
1
1
1
1
1
1
1
1
1
1
1
1
1
1
1
1
1
1
1
1
1
1
1
1
1
1
1
1
1
1
1
1
1
1
1
1
1
1
1
1
1
1
1
1
1
1
1
1
1
1
1
1
1
1
1
1
1
1
1
1
1
1
1
1
1
1
1
1
1
1
1
1
1
1
1
1
1
1
1
1
1
1
1
1
1
1
1
1
1
1
1
1
1
1
1
1
1
1
1
1
1
1
1
1
1
1
1
1
1
1
1
1
1
1
1
1
1
1
1
1
1
1
1
1
1
1
1
1
1
1
1
1
1
1
1
1
1
1
1
1
1
1
1
1
1
1
1
1
1
1
1
1
1
1
1
1
1
1
1
1
1
1
1
1
1
1
1
1
1
1
1
1
1
1
1
1
1
1
1
1
1
1
1
1
1
1
1
1
1
1
1
1
1
1
1
1
1
1
1
1
1
1
1
1
1
1
1
1
1
1
1
1
1
1
1
1
1
1
1
1
1
1
1
1
1
1
1
1
1
1
1
1
1
1
1
1
1
1
1
1
1
1
1
1
1
1
1
1
1
1
1
1
1
1
1
1
1
1
1
1
1
1
1
1
1
1
1
1
1
1
1
1
1
1
1
1
1
1
1
1
1
1
1
1
1
1
1
1
1
1
1
1
1
1
1
1
1
1
1
1
1
1
1
1
1
1
1
1
1
1
1
1
1
1
1
1
1
1
1
1
1
1
1
1
1
1
1
1
1
1
1
1
1
1
1
1
1
1
1
1
1
1
1
1
1
1
1
1
1
1
1
1
1
1
1
1
1
1
1
1
1
1
1
1
1
1
1
1
1
1
1
1
1
1
1
1
1
1
1
1
1
1
1
1
1
1
1
1
1
1
1
1
1
1
1
1
1
1
1
1
1
1
1
1
1
1
1
1
1
1
1
1
1
1
1
1
1
1
1
1
1
1
1
1
1
1
1
1
1
1
1
1
1
1
1
1
1
1
1
1
1
1
1
1
1
1
1
1
1
1
1
1
1
1
1
1
1
1
1
1
1
1
1
1
1
1
1
1
1
1
1
1
1
1
1
1
1
1
1
1
1
1
1
1
1
1
1
1
1
1
1
1
1
1
1
1
1
1
1
1
1
1
1
1
1
1
1
1
1
1
1
1
1
1
1
1
1
1
1
1
1
1
1
1
1
1
1
1
1
1
1
1
1
1
1
1
1
1
1
1
1
1
1
1
1
1
1
1
1
1
1
1
1
1
1
1
1
1
1
1
1
1
1
1
1
1
1
1
1
1
1
1
1
1
1
1
1
1
1
1
1
1
1
1
1
1
1
1
1
1
1
1
1
1
1
1
1
1
1
1
1
1
1
1
1
1
1
1
1
1
1
1
1
1
1
1
1
1
1
1
1
1
1
1
1
1
1
1
1
1
1
1
1
1
1
1
1
1
1
1
1
1
1
1
1
1
1
1
1
1
1
1
1
1
1
1
1
1
1
1
1
1
1
1
1
1
1
1
1
1
1
1
1
1
1
1
1
1
1
1
1
1
1
1
1
1
1
1
1
1
1
1
1
1
1
1
1
1
1
1
1
1
1
1
1
1
1
1
1
1
1
1
1
1
1
1
1
1
1
1
1
1
1
1
1
1
1
1
1
1
1
1
1
1
1
1
1
1
1
1
1
1
1
1
1
1
1
1
1
1
1
1
1
1
1
1
1
1
1
1
1
1
1
1
1
1
1
1
1
1
1
1
1
1
1
1
1
1
1
1
1
1
1
1
1
1
1
1
1
1
1
1
1
1
1
1
1
1
1
1
1
1
1
1
1
1
1
1
1
1
1
1
1
1
1
1
1
1
1
1
1
1
1
1
1
1
1
1
1
1
1
1
1
1
1
1
1
1
1
1
1
1
1
1
1
1
1
1
1
1
1
0.99999999
0.99999999
0.99999999
0.99999999
0.99999999
0.99999999
0.99999999
0.99999999
0.99999999
0.99999999
0.99999999
0.99999999
0.99999999
0.99999999
0.99999999
0.99999998
0.99999998
0.99999998
0.99999998
0.99999998
0.99999998
0.99999998
0.99999998
0.99999998
0.99999998
0.99999998
0.99999998
0.99999998
0.99999998
0.99999998
0.99999998
0.99999997
0.99999997
0.99999997
0.99999997
0.99999997
0.99999997
0.99999997
0.99999997
0.99999997
0.99999997
0.99999997
0.99999997
0.99999997
0.99999997
0.99999997
0.99999997
0.99999997
0.99999997
0.99999997
0.99999997
0.99999997
0.99999997
0.99999997
0.99999997
0.99999997
0.99999997
0.99999997
0.99999997
0.99999997
0.99999997
0.99999997
0.99999997
0.99999997
0.99999997
0.99999997
0.99999997
0.99999997
0.99999997
0.99999997
0.99999997
0.99999997
0.99999997
0.99999997
0.99999997
0.99999997
0.99999997
0.99999997
0.99999997
0.99999997
0.99999997
0.99999742
0.99999622
0.99999564
0.99999542
0.99999538
0.99999542
0.99999551
0.99999562
0.99999575
0.99999588
0.99999602
0.99999616
0.99999632
0.99999648
0.99999665
0.99999682
0.999997
0.99999719
0.99999737
0.99999756
0.99999774
0.99999792
0.9999981
0.99999826
0.99999842
0.99999857
0.99999871
0.99999884
0.99999896
0.99999907
0.99999917
0.99999926
0.99999935
0.99999942
0.99999948
0.99999954
0.99999959
0.99999964
0.99999968
0.99999971
0.99999975
0.99999977
0.9999998
0.99999982
0.99999984
0.99999985
0.99999987
0.99999988
0.99999989
0.9999999
0.99999991
0.99999992
0.99999992
0.99999993
0.99999994
0.99999994
0.99999994
0.99999995
0.99999995
0.99999995
0.99999996
0.99999996
0.99999996
0.99999996
0.99999997
0.99999997
0.99999997
0.99999997
0.99999997
0.99999997
0.99999997
0.99999997
0.99999997
0.99999997
0.99999997
0.99999998
0.99999998
0.99999998
0.99999998
0.99999998
0.99999998
0.99999998
0.99999998
0.99999998
0.99999998
0.99999998
0.99999998
0.99999998
0.99999998
0.99999998
0.99999998
0.99999998
0.99999998
0.99999998
0.99999998
0.99999998
0.99999998
0.99999998
0.99999998
0.99999997
0.99999997
0.99999997
0.99999997
0.99999997
0.99999996
0.99999996
0.99999995
0.99999995
0.99999994
0.99999994
0.99999993
0.99999992
0.99999992
0.99999991
0.9999999
0.99999989
0.99999989
0.99999988
0.99999987
0.99999986
0.99999985
0.99999984
0.99999983
0.99999982
0.99999981
0.9999998
0.99999979
0.99999978
0.99999977
0.99999976
0.99999975
0.99999974
0.99999973
0.99999972
0.99999971
0.9999997
0.99999969
0.99999968
0.99999967
0.99999967
0.99999966
0.99999965
0.99999964
0.99999963
0.99999963
0.99999962
0.99999961
0.99999961
0.9999996
0.99999959
0.99999959
0.99999958
0.99999958
0.99999957
0.99999957
0.99999957
0.99999956
0.99999956
0.99999955
0.99999955
0.99999955
0.99999954
0.99999954
0.99999954
0.99999954
0.99999953
0.99999953
0.99999953
0.99999953
0.99999952
0.99999952
0.99999952
0.99999952
0.99999952
0.99999952
0.99999952
0.99999951
0.99999951
0.99999951
0.99999951
0.99999951
0.99999951
0.99999951
0.99999951
0.99999951
0.99999951
0.9999995
0.9999995
0.9999995
0.9999995
0.9999995
0.9999995
0.9999995
0.9999995
0.9999995
0.9999995
0.9999995
0.9999995
0.99999949
0.99999949
0.96403717
0.98171804
0.98792119
0.99117882
0.9931659
0.9944916
0.9954354
0.99614135
0.99669051
0.99713172
0.99749577
0.99780282
0.9980664
0.99829582
0.99849756
0.99867628
0.99883534
0.99897724
0.99910392
0.99921692
0.99931752
0.99940684
0.99948587
0.99955554
0.99961672
0.99967024
0.99971686
0.99975732
0.9997923
0.99982246
0.99984836
0.99987056
0.99988953
0.99990571
0.99991948
0.9999312
0.99994114
0.99994958
0.99995674
0.99996282
0.99996797
0.99997234
0.99997605
0.99997921
0.99998189
0.99998418
0.99998614
0.99998781
0.99998924
0.99999047
0.99999152
0.99999243
0.99999322
0.9999939
0.99999449
0.999995
0.99999545
0.99999584
0.99999618
0.99999649
0.99999675
0.99999698
0.99999719
0.99999737
0.99999753
0.99999768
0.9999978
0.99999792
0.99999802
0.99999811
0.99999819
0.99999826
0.99999833
0.99999838
0.99999843
0.99999848
0.99999852
0.99999856
0.99999859
0.99999862
0.99999865
0.99999867
0.99999869
0.99999871
0.99999872
0.99999873
0.99999874
0.99999875
0.99999876
0.99999877
0.99999877
0.99999878
0.99999878
0.99999878
0.99999878
0.99999878
0.99999878
0.99999878
0.99999877
0.99999876
0.99999874
0.99999872
0.99999869
0.99999865
0.9999986
0.99999855
0.9999985
0.99999844
0.99999838
0.99999831
0.99999824
0.99999816
0.99999808
0.999998
0.99999792
0.99999783
0.99999774
0.99999765
0.99999756
0.99999747
0.99999738
0.99999728
0.99999719
0.9999971
0.999997
0.99999691
0.99999682
0.99999672
0.99999663
0.99999654
0.99999645
0.99999637
0.99999628
0.9999962
0.99999612
0.99999604
0.99999596
0.99999589
0.99999581
0.99999574
0.99999568
0.99999561
0.99999555
0.99999549
0.99999543
0.99999537
0.99999532
0.99999527
0.99999522
0.99999517
0.99999513
0.99999509
0.99999505
0.99999501
0.99999497
0.99999494
0.99999491
0.99999488
0.99999485
0.99999482
0.99999479
0.99999477
0.99999475
0.99999473
0.99999471
0.99999469
0.99999467
0.99999465
0.99999464
0.99999462
0.99999461
0.9999946
0.99999459
0.99999457
0.99999456
0.99999455
0.99999454
0.99999454
0.99999453
0.99999452
0.99999451
0.9999945
0.9999945
0.99999449
0.99999448
0.99999448
0.99999447
0.99999446
0.99999446
0.99999445
0.99999445
0.99999444
0.99999443
0.99999443
0.99999442
0.99999442
0.99999441
0.9999944
0.9999944
0.99999439
0.0028534689
0.62280081
0.79111987
0.85963698
0.89599118
0.9182896
0.93333891
0.94422442
0.95252103
0.95910475
0.96449552
0.9690177
0.97288185
0.97622928
0.97915763
0.98173635
0.98401631
0.98603605
0.98782584
0.98941037
0.99081055
0.99204469
0.99312919
0.99407906
0.99490817
0.99562935
0.99625453
0.99679473
0.99726005
0.99765975
0.9980022
0.99829493
0.99854465
0.99875734
0.99893824
0.99909193
0.99922242
0.99933315
0.9994271
0.99950683
0.99957451
0.999632
0.99968087
0.99972247
0.99975791
0.99978816
0.99981401
0.99983615
0.99985514
0.99987146
0.99988552
0.99989766
0.99990816
0.99991727
0.99992518
0.99993207
0.99993809
0.99994336
0.99994797
0.99995203
0.99995561
0.99995877
0.99996156
0.99996403
0.99996623
0.99996818
0.99996992
0.99997147
0.99997286
0.9999741
0.99997521
0.9999762
0.99997709
0.99997789
0.9999786
0.99997924
0.99997981
0.99998033
0.99998079
0.9999812
0.99998156
0.99998189
0.99998218
0.99998243
0.99998265
0.99998285
0.99998302
0.99998316
0.99998328
0.99998339
0.99998347
0.99998354
0.9999836
0.99998363
0.99998366
0.99998367
0.99998368
0.99998367
0.99998365
0.9999836
0.99998349
0.99998333
0.99998313
0.99998288
0.9999826
0.99998228
0.99998193
0.99998156
0.99998115
0.99998072
0.99998028
0.99997981
0.99997932
0.99997883
0.99997832
0.99997779
0.99997727
0.99997673
0.99997619
0.99997564
0.9999751
0.99997455
0.99997401
0.99997347
0.99997293
0.9999724
0.99997188
0.99997136
0.99997085
0.99997035
0.99996986
0.99996939
0.99996892
0.99996846
0.99996802
0.99996759
0.99996718
0.99996677
0.99996639
0.99996601
0.99996565
0.9999653
0.99996497
0.99996465
0.99996434
0.99996405
0.99996377
0.9999635
0.99996325
0.999963
0.99996277
0.99996256
0.99996235
0.99996215
0.99996197
0.9999618
0.99996163
0.99996147
0.99996133
0.99996119
0.99996106
0.99996094
0.99996083
0.99996072
0.99996062
0.99996053
0.99996044
0.99996036
0.99996028
0.99996021
0.99996014
0.99996008
0.99996002
0.99995996
0.99995991
0.99995986
0.99995981
0.99995977
0.99995973
0.99995969
0.99995965
0.99995962
0.99995958
0.99995955
0.99995952
0.99995949
0.99995946
0.99995943
0.9999594
0.99995937
0.99995934
0.99995932
0.99995929
0.99995926
0.99995923
0.9999592
0.99995918
0.99995915
0.99995912
0.99995909
6.9340594e-06
0.0011448113
0.19277654
0.355717
0.48739825
0.57687852
0.6420272
0.69210912
0.73227204
0.7655424
0.79378635
0.81820128
0.83958217
0.85847385
0.87526168
0.89022764
0.90358602
0.91550649
0.92612917
0.9355745
0.94394958
0.95135208
0.95787267
0.96359621
0.96860246
0.97296622
0.97675738
0.98004078
0.98287621
0.98531831
0.98741667
0.98921591
0.99075592
0.99207208
0.99319559
0.99415378
0.99497048
0.99566635
0.99625923
0.99676445
0.99719517
0.99756261
0.99787634
0.9981445
0.998374
0.99857069
0.99873953
0.9988847
0.99900975
0.99911768
0.99921102
0.9992919
0.99936214
0.99942327
0.99947659
0.99952319
0.99956402
0.99959987
0.9996314
0.99965921
0.99968377
0.99970552
0.9997248
0.99974194
0.99975719
0.99977078
0.99978292
0.99979377
0.99980348
0.99981218
0.99981998
0.99982698
0.99983326
0.99983891
0.99984398
0.99984854
0.99985263
0.9998563
0.99985958
0.99986253
0.99986516
0.9998675
0.99986959
0.99987143
0.99987306
0.9998745
0.99987575
0.99987683
0.99987776
0.99987855
0.99987922
0.99987976
0.9998802
0.99988053
0.99988078
0.99988094
0.99988102
0.99988103
0.99988098
0.99988079
0.99988035
0.99987968
0.9998788
0.99987773
0.99987649
0.99987509
0.99987356
0.9998719
0.99987013
0.99986826
0.9998663
0.99986426
0.99986216
0.99986001
0.99985781
0.99985557
0.99985331
0.99985103
0.99984873
0.99984644
0.99984414
0.99984185
0.99983958
0.99983733
0.9998351
0.99983291
0.99983075
0.99982862
0.99982654
0.9998245
0.99982251
0.99982057
0.99981869
0.99981685
0.99981507
0.99981335
0.99981168
0.99981007
0.99980852
0.99980703
0.9998056
0.99980422
0.9998029
0.99980164
0.99980043
0.99979928
0.99979818
0.99979713
0.99979614
0.9997952
0.9997943
0.99979345
0.99979265
0.99979189
0.99979117
0.9997905
0.99978986
0.99978926
0.9997887
0.99978817
0.99978768
0.99978721
0.99978677
0.99978637
0.99978599
0.99978563
0.99978529
0.99978498
0.99978469
0.99978442
0.99978417
0.99978393
0.99978371
0.9997835
0.99978331
0.99978312
0.99978295
0.99978279
0.99978264
0.9997825
0.99978236
0.99978223
0.99978211
0.99978199
0.99978187
0.99978176
0.99978166
0.99978155
0.99978145
0.99978135
0.99978125
0.99978115
0.99978106
0.99978096
0.99978086
0.99978076
0.99978066
0.99978056
0.99978046
0.99978036
1.0438305e-07
1.3738265e-06
0.00016419179
0.00032159682
0.0055784331
0.045492625
0.10274054
0.1707942
0.23867
0.30435344
0.36695984
0.42610288
0.48162141
0.53346137
0.5816258
0.62615465
0.66711699
0.70460803
0.73874718
0.76967609
0.79755581
0.82256333
0.84488763
0.86472541
0.88227692
0.897742
0.91131655
0.92318959
0.93354087
0.94253913
0.95034091
0.95708989
0.96291668
0.96793901
0.97226215
0.97597957
0.97917373
0.98191698
0.98427251
0.98629519
0.98803256
0.98952562
0.99080965
0.99191492
0.99286735
0.9936891
0.99439908
0.99501345
0.99554593
0.99600825
0.99641038
0.99676082
0.99706679
0.99733448
0.99756913
0.99777524
0.99795664
0.9981166
0.99825795
0.99838308
0.99849406
0.99859267
0.99868044
0.99875869
0.99882856
0.99889103
0.99894697
0.99899712
0.99904213
0.99908256
0.9991189
0.99915159
0.99918101
0.9992075
0.99923133
0.99925279
0.99927209
0.99928944
0.99930502
0.999319
0.99933152
0.9993427
0.99935267
0.99936153
0.99936937
0.99937629
0.99938234
0.99938762
0.99939218
0.99939608
0.99939937
0.9994021
0.99940432
0.99940608
0.9994074
0.99940833
0.99940889
0.99940913
0.99940906
0.99940858
0.99940723
0.99940509
0.99940224
0.99939874
0.99939466
0.99939005
0.99938498
0.99937949
0.99937363
0.99936745
0.99936098
0.99935428
0.99934737
0.9993403
0.9993331
0.99932579
0.9993184
0.99931097
0.99930352
0.99929608
0.99928865
0.99928128
0.99927396
0.99926673
0.9992596
0.99925257
0.99924567
0.99923891
0.99923229
0.99922582
0.99921952
0.99921339
0.99920743
0.99920165
0.99919605
0.99919064
0.99918541
0.99918038
0.99917553
0.99917087
0.9991664
0.99916211
0.99915801
0.99915409
0.99915034
0.99914677
0.99914338
0.99914014
0.99913708
0.99913416
0.99913141
0.9991288
0.99912633
0.999124
0.99912181
0.99911974
0.99911779
0.99911596
0.99911425
0.99911264
0.99911113
0.99910972
0.9991084
0.99910716
0.99910601
0.99910494
0.99910393
0.999103
0.99910213
0.99910132
0.99910056
0.99909985
0.9990992
0.99909858
0.99909801
0.99909747
0.99909697
0.9990965
0.99909606
0.99909564
0.99909525
0.99909488
0.99909452
0.99909418
0.99909386
0.99909355
0.99909325
0.99909295
0.99909267
0.99909238
0.9990921
0.99909182
0.99909155
0.99909127
0.99909099
0.99909071
0.99909043
0.99909015
0.99908987
0.99908959
1.8551739e-10
1.1689835e-09
1.0110041e-07
2.1148584e-07
2.8262248e-06
2.2144423e-05
5.9792677e-05
0.00024116967
0.010735654
0.032520401
0.063966828
0.10314832
0.1482872
0.19771348
0.24992078
0.30358495
0.35756701
0.41090912
0.46282662
0.51269753
0.56004997
0.60454782
0.64597519
0.68422015
0.71925822
0.75113631
0.77995748
0.80586698
0.82903979
0.84966985
0.86796104
0.88411986
0.89834968
0.91084643
0.92179555
0.93136998
0.93972901
0.94701784
0.9533676
0.95889584
0.9637072
0.96789431
0.97153875
0.97471208
0.97747683
0.97988746
0.9819913
0.98382941
0.98543729
0.98684565
0.98808103
0.98916629
0.99012119
0.99096273
0.99170562
0.99236251
0.99294434
0.99346055
0.99391931
0.99432766
0.99469174
0.99501683
0.99530754
0.99556787
0.99580129
0.99601085
0.9961992
0.99636865
0.99652123
0.99665872
0.99678269
0.99689453
0.99699544
0.9970865
0.99716867
0.99724279
0.99730962
0.99736983
0.99742402
0.99747272
0.99751641
0.99755554
0.99759048
0.9976216
0.99764921
0.9976736
0.99769503
0.99771376
0.99772999
0.99774393
0.99775576
0.99776566
0.99777378
0.99778027
0.99778525
0.99778886
0.99779122
0.99779242
0.99779257
0.99779162
0.9977883
0.99778282
0.9977754
0.99776622
0.99775545
0.99774326
0.99772979
0.99771519
0.9976996
0.99768314
0.99766592
0.99764805
0.99762965
0.9976108
0.9975916
0.99757213
0.99755248
0.99753271
0.99751289
0.9974931
0.99747339
0.99745381
0.99743442
0.99741525
0.99739636
0.99737778
0.99735954
0.99734167
0.9973242
0.99730716
0.99729055
0.99727441
0.99725874
0.99724355
0.99722886
0.99721466
0.99720097
0.99718778
0.9971751
0.99716292
0.99715124
0.99714005
0.99712935
0.99711913
0.99710939
0.9971001
0.99709127
0.99708288
0.99707492
0.99706737
0.99706022
0.99705347
0.99704709
0.99704108
0.99703541
0.99703008
0.99702507
0.99702036
0.99701595
0.99701182
0.99700795
0.99700433
0.99700096
0.99699781
0.99699487
0.99699213
0.99698958
0.99698721
0.996985
0.99698295
0.99698104
0.99697927
0.99697762
0.99697608
0.99697465
0.99697332
0.99697207
0.99697091
0.99696982
0.9969688
0.99696783
0.99696692
0.99696606
0.99696524
0.99696445
0.9969637
0.99696297
0.99696226
0.99696158
0.9969609
0.99696023
0.99695956
0.99695889
0.99695822
0.99695756
0.99695689
0.99695622
0.99695555
0.99695488
0.9969542
1.6998111e-13
6.3773985e-13
4.3464037e-11
1.062273e-10
1.2109255e-09
9.6688355e-09
3.0432452e-08
1.1825657e-07
4.1456727e-06
1.6445129e-05
0.0023870162
0.0093758668
0.022197905
0.041491499
0.067318814
0.099288326
0.13668289
0.17857663
0.22393447
0.27169271
0.32082119
0.3703685
0.41949217
0.46747604
0.51373706
0.55782379
0.59940883
0.638277
0.67431099
0.70747597
0.73780413
0.76538001
0.79032715
0.81279632
0.83295558
0.85098205
0.86705537
0.88135268
0.89404484
0.90529392
0.91525142
0.92405739
0.93184003
0.93871574
0.9447895
0.9501554
0.9548974
0.95909009
0.96279951
0.96608394
0.96899472
0.97157698
0.9738703
0.97590939
0.97772466
0.97934269
0.98078677
0.98207726
0.98323198
0.98426654
0.98519458
0.98602807
0.98677751
0.98745211
0.98805997
0.98860819
0.98910304
0.98955006
0.98995412
0.99031954
0.99065013
0.99094929
0.99122002
0.99146501
0.99168664
0.99188705
0.99206815
0.99223164
0.99237907
0.99251182
0.99263114
0.99273816
0.99283389
0.99291927
0.99299514
0.99306228
0.99312137
0.99317307
0.99321797
0.99325661
0.99328949
0.99331707
0.99333978
0.99335801
0.99337213
0.99338249
0.9933894
0.99339315
0.99339402
0.99339206
0.99338383
0.99336993
0.99335092
0.9933273
0.99329956
0.99326816
0.99323351
0.993196
0.99315602
0.99311389
0.99306994
0.99302446
0.99297775
0.99293004
0.99288159
0.99283261
0.99278331
0.99273388
0.99268449
0.9926353
0.99258645
0.99253808
0.9924903
0.99244323
0.99239695
0.99235155
0.99230711
0.9922637
0.99222136
0.99218015
0.9921401
0.99210125
0.99206363
0.99202725
0.99199212
0.99195826
0.99192566
0.99189433
0.99186425
0.99183542
0.99180782
0.99178143
0.99175624
0.99173223
0.99170936
0.99168761
0.99166695
0.99164735
0.99162878
0.99161121
0.99159461
0.99157894
0.99156416
0.99155025
0.99153716
0.99152487
0.99151334
0.99150253
0.99149242
0.99148296
0.99147413
0.99146589
0.99145821
0.99145106
0.99144441
0.99143823
0.99143249
0.99142716
0.99142223
0.99141765
0.99141341
0.99140948
0.99140585
0.99140248
0.99139935
0.99139645
0.99139376
0.99139126
0.99138892
0.99138674
0.9913847
0.99138278
0.99138097
0.99137926
0.99137763
0.99137608
0.99137458
0.99137314
0.99137174
0.99137035
0.99136898
0.99136761
0.99136625
0.99136489
0.99136353
0.99136217
0.9913608
0.99135943
0.99135806
0.99135668
4.5980423e-17
2.0847211e-16
1.2589197e-14
3.9499392e-14
4.0810016e-13
3.4320231e-12
1.2550156e-11
4.9803374e-11
1.4485025e-09
7.0696375e-09
8.4736175e-07
0.00013027484
0.0012321519
0.0043219741
0.010467429
0.020598541
0.035388439
0.055197746
0.080069836
0.10976163
0.14379588
0.18152333
0.22218629
0.26497736
0.30908984
0.35375772
0.39828494
0.4420644
0.48458798
0.52544911
0.56433964
0.60104251
0.63542194
0.66741203
0.69700509
0.72424024
0.74919274
0.77196455
0.79267609
0.81145931
0.8284521
0.84379376
0.85762158
0.87006831
0.88126035
0.89131659
0.90034772
0.90845594
0.91573493
0.92227007
0.92813881
0.93341105
0.93814974
0.94241134
0.94624639
0.94970008
0.95281269
0.95562013
0.95815435
0.9604438
0.96251377
0.96438675
0.96608275
0.96761955
0.96901298
0.97027716
0.97142463
0.9724666
0.97341306
0.97427295
0.97505426
0.97576414
0.97640901
0.97699462
0.97752617
0.97800831
0.97844526
0.97884082
0.97919844
0.97952123
0.97981203
0.98007343
0.98030778
0.98051723
0.98070374
0.98086912
0.98101503
0.98114299
0.98125441
0.98135058
0.98143272
0.98150192
0.98155923
0.98160561
0.98164194
0.98166906
0.98168775
0.98169873
0.98170267
0.98169992
0.98168583
0.98166148
0.98162787
0.98158597
0.98153664
0.98148073
0.981419
0.98135217
0.98128091
0.98120587
0.98112761
0.98104668
0.98096359
0.9808788
0.98079275
0.98070584
0.98061843
0.98053087
0.98044345
0.98035647
0.98027017
0.9801848
0.98010055
0.98001762
0.97993617
0.97985636
0.97977829
0.9797021
0.97962787
0.97955568
0.9794856
0.97941768
0.97935196
0.97928847
0.97922723
0.97916825
0.97911153
0.97905705
0.97900482
0.97895479
0.97890695
0.97886126
0.97881768
0.97877617
0.97873669
0.97869918
0.9786636
0.97862988
0.97859797
0.97856782
0.97853936
0.97851253
0.97848727
0.97846353
0.97844123
0.97842033
0.97840075
0.97838243
0.97836532
0.97834936
0.97833449
0.97832065
0.97830779
0.97829585
0.97828478
0.97827453
0.97826505
0.97825628
0.97824819
0.97824073
0.97823385
0.97822751
0.97822167
0.9782163
0.97821135
0.97820679
0.97820259
0.97819872
0.97819514
0.97819182
0.97818874
0.97818588
0.9781832
0.97818069
0.97817833
0.97817608
0.97817394
0.97817189
0.9781699
0.97816793
0.97816598
0.97816405
0.97816213
0.97816022
0.9781583
0.97815638
0.97815445
0.97815251
0.97815056
0.9781486
1.2549492e-20
6.283558e-20
3.2136134e-18
1.2541045e-17
1.2141684e-16
1.0819598e-15
4.576115e-15
1.9233345e-14
4.87669e-13
2.8488607e-12
3.030314e-10
4.5097719e-08
1.8702345e-06
0.00017849639
0.00091224981
0.0027874328
0.006515864
0.012835064
0.022408736
0.035748465
0.053165052
0.074749978
0.10038265
0.12975674
0.16241845
0.19781017
0.23531404
0.27429193
0.31411901
0.35421004
0.39403814
0.43314638
0.47115339
0.50775395
0.54271575
0.5758737
0.60712239
0.6364079
0.6637194
0.68908093
0.71254393
0.73418045
0.75407731
0.77233109
0.78904406
0.80432085
0.81826586
0.83098127
0.84256563
0.85311279
0.86271128
0.87144392
0.87938765
0.88661358
0.89318709
0.89916804
0.90461111
0.90956605
0.91407806
0.91818812
0.92193332
0.92534721
0.92846011
0.93129938
0.93388972
0.93625345
0.93841069
0.94037962
0.94217664
0.94381661
0.94531293
0.94667774
0.94792205
0.94905584
0.95008815
0.95102721
0.95188053
0.95265491
0.95335661
0.95399129
0.95456419
0.95508007
0.95554332
0.95595798
0.95632776
0.95665608
0.95694611
0.95720078
0.95742281
0.9576147
0.95777881
0.95791731
0.95803223
0.95812545
0.95819874
0.95825374
0.958292
0.95831496
0.95832395
0.95831901
0.95829513
0.95825414
0.95819776
0.95812759
0.95804512
0.95795176
0.95784881
0.95773749
0.95761895
0.95749423
0.95736432
0.95723013
0.95709252
0.95695225
0.95681006
0.9566666
0.95652248
0.95637827
0.95623446
0.95609152
0.95594986
0.95580987
0.95567187
0.95553617
0.95540303
0.95527269
0.95514534
0.95502116
0.9549003
0.95478288
0.95466899
0.95455872
0.95445212
0.95434923
0.95425007
0.95415466
0.95406298
0.95397501
0.95389072
0.95381007
0.95373301
0.95365948
0.95358941
0.95352273
0.95345935
0.9533992
0.95334218
0.9532882
0.95323717
0.95318899
0.95314356
0.95310077
0.95306054
0.95302276
0.95298732
0.95295412
0.95292307
0.95289407
0.95286701
0.95284181
0.95281836
0.95279658
0.95277637
0.95275764
0.95274032
0.95272431
0.95270953
0.95269591
0.95268337
0.95267184
0.95266124
0.95265151
0.95264258
0.95263439
0.95262689
0.95262001
0.9526137
0.9526079
0.95260258
0.95259768
0.95259316
0.95258898
0.95258509
0.95258147
0.95257807
0.95257487
0.95257183
0.95256893
0.95256607
0.95256327
0.95256051
0.95255779
0.95255508
0.95255237
0.95254966
0.95254695
0.95254421
0.95254145
0.95253868
0.95253589
3.5011914e-24
1.9253277e-23
8.202982e-22
3.8123559e-21
3.5179886e-20
3.2951028e-19
1.5955337e-18
7.2340383e-18
1.6562042e-16
1.1401285e-15
1.1316187e-13
1.6573235e-11
7.2858479e-10
8.0365635e-08
3.6885588e-05
0.00023518574
0.00084745253
0.0022613759
0.0049721198
0.0095289248
0.016470862
0.026265729
0.039262054
0.055659294
0.075497044
0.098661006
0.12490176
0.1538618
0.18510639
0.2181548
0.25250901
0.28767824
0.3231985
0.35864673
0.39365012
0.42789093
0.46110775
0.49309403
0.52369446
0.5528002
0.58034325
0.60629059
0.63063838
0.65340649
0.67463349
0.69437214
0.71268557
0.72964397
0.74532185
0.75979585
0.77314293
0.78543902
0.79675797
0.80717081
0.81674525
0.82554528
0.83363107
0.84105885
0.84788095
0.85414591
0.8598986
0.86518038
0.87002935
0.87448048
0.87856586
0.88231492
0.88575461
0.88890959
0.89180246
0.89445388
0.89688277
0.89910645
0.9011408
0.90300035
0.90469846
0.90624737
0.90765833
0.90894169
0.91010697
0.91116296
0.91211777
0.91297886
0.91375317
0.9144471
0.9150666
0.91561718
0.91610398
0.91653175
0.91690494
0.91722769
0.91750386
0.91773706
0.91793067
0.91808784
0.91821152
0.91830447
0.91836929
0.91840839
0.91842406
0.91841492
0.91837827
0.9183168
0.91823303
0.91812931
0.91800786
0.91787072
0.91771983
0.91755698
0.91738383
0.91720194
0.91701275
0.9168176
0.9166177
0.91641421
0.91620817
0.91600053
0.91579217
0.9155839
0.91537644
0.91517045
0.91496652