/*--------------------------------*- C++ -*----------------------------------*\
| =========                 |                                                 |
| \\      /  F ield         | OpenFOAM: The Open Source CFD Toolbox           |
|  \\    /   O peration     | Version:  2406                                  |
|   \\  /    A nd           | Website:  www.openfoam.com                      |
|    \\/     M anipulation  |                                                 |
\*---------------------------------------------------------------------------*/
FoamFile
{
    version     2.0;
    format      ascii;
    arch        "LSB;label=32;scalar=64";
    class       volVectorField;
    location    "1317";
    object      U;
}
// * * * * * * * * * * * * * * * * * * * * * * * * * * * * * * * * * * * * * //

dimensions      [0 1 -1 0 0 0 0];

internalField   nonuniform List<vector> 
8800
(
(-1.9375272e-05 1.8132278e-05 0)
(-0.00013993306 3.7425431e-05 0)
(-0.00029835641 3.9155815e-05 0)
(-0.00043550184 2.9352503e-05 0)
(-0.00051650452 1.6206787e-05 0)
(-0.000536302 3.6700098e-06 0)
(-0.00050287951 -6.4432219e-06 0)
(-0.0004289708 -1.364527e-05 0)
(-0.00032779192 -1.8148042e-05 0)
(-0.0002109426 -2.0446808e-05 0)
(-8.7640128e-05 -2.1090596e-05 0)
(3.5302268e-05 -2.0574948e-05 0)
(0.00015316484 -1.9307912e-05 0)
(0.00026290421 -1.7605524e-05 0)
(0.00036275497 -1.5693741e-05 0)
(0.00045188541 -1.3727154e-05 0)
(0.00053011839 -1.1807166e-05 0)
(0.00059771818 -9.9964931e-06 0)
(0.00065523301 -8.3305601e-06 0)
(0.0007033811 -6.8260879e-06 0)
(0.00074296992 -5.4873456e-06 0)
(0.0007748401 -4.3105887e-06 0)
(0.00079982731 -3.2871576e-06 0)
(0.00081873721 -2.4056088e-06 0)
(0.00083232971 -1.6531594e-06 0)
(0.00084130984 -1.0166485e-06 0)
(0.00084632335 -4.8316034e-07 0)
(0.00084795553 -4.0415811e-08 0)
(0.00084673209 3.2302608e-07 0)
(0.00084312169 6.1766949e-07 0)
(0.00083753914 8.5297851e-07 0)
(0.00083034949 1.0374138e-06 0)
(0.00082187218 1.1784686e-06 0)
(0.00081238525 1.2827333e-06 0)
(0.00080212947 1.3559706e-06 0)
(0.00079131224 1.4031935e-06 0)
(0.00078011127 1.4287433e-06 0)
(0.00076867797 1.4363639e-06 0)
(0.00075714056 1.4292715e-06 0)
(0.00074560688 1.4102194e-06 0)
(0.00073416698 1.3815563e-06 0)
(0.00072289532 1.345279e-06 0)
(0.00071185289 1.3030793e-06 0)
(0.00070108895 1.2563852e-06 0)
(0.00069064267 1.2063983e-06 0)
(0.0006805445 1.1541249e-06 0)
(0.00067081742 1.1004044e-06 0)
(0.00066147806 1.0459332e-06 0)
(0.00065253757 9.9128607e-07 0)
(0.00064400253 9.3693384e-07 0)
(0.0006358756 8.8325927e-07 0)
(0.0006281562 8.3057033e-07 0)
(0.00062084102 7.7911178e-07 0)
(0.0006139245 7.2907497e-07 0)
(0.00060739923 6.806063e-07 0)
(0.00060125631 6.3381445e-07 0)
(0.00059548565 5.8877647e-07 0)
(0.0005900762 5.4554308e-07 0)
(0.00058501623 5.0414307e-07 0)
(0.00058029346 4.6458718e-07 0)
(0.00057589525 4.2687121e-07 0)
(0.00057180872 3.9097884e-07 0)
(0.0005680209 3.568839e-07 0)
(0.00056451879 3.2455235e-07 0)
(0.00056128944 2.939439e-07 0)
(0.00055832007 2.6501341e-07 0)
(0.00055559804 2.3771209e-07 0)
(0.00055311098 2.1198842e-07 0)
(0.00055084678 1.8778902e-07 0)
(0.00054879362 1.6505929e-07 0)
(0.00054694002 1.4374399e-07 0)
(0.00054527483 1.2378772e-07 0)
(0.00054378725 1.0513526e-07 0)
(0.00054246684 8.7731896e-08 0)
(0.00054130353 7.1523681e-08 0)
(0.00054028764 5.6457609e-08 0)
(0.00053940983 4.248178e-08 0)
(0.00053866114 2.9545513e-08 0)
(0.00053803299 1.7599433e-08 0)
(0.00053751714 6.5955373e-09 0)
(0.00053710571 -3.5127684e-09 0)
(0.00053679119 -1.2770641e-08 0)
(0.00053656637 -2.1221791e-08 0)
(0.00053642441 -2.890848e-08 0)
(0.00053635878 -3.5871532e-08 0)
(0.00053636328 -4.2150348e-08 0)
(0.000536432 -4.7782892e-08 0)
(0.00053655934 -5.2805767e-08 0)
(0.00053673999 -5.7254258e-08 0)
(0.00053696892 -6.1162318e-08 0)
(0.00053724137 -6.4562596e-08 0)
(0.00053755285 -6.7486475e-08 0)
(0.00053789912 -6.9964112e-08 0)
(0.00053827618 -7.2024458e-08 0)
(0.00053868028 -7.3695295e-08 0)
(0.00053910789 -7.5003262e-08 0)
(0.00053955569 -7.5973882e-08 0)
(0.00054002061 -7.6631594e-08 0)
(0.00054049974 -7.6999779e-08 0)
(0.00054099037 -7.7100784e-08 0)
(0.00054149002 -7.6955952e-08 0)
(0.00054199633 -7.6585646e-08 0)
(0.00054250715 -7.6009271e-08 0)
(0.0005430205 -7.5245302e-08 0)
(0.00054353452 -7.4311306e-08 0)
(0.00054404754 -7.3223962e-08 0)
(0.000544558 -7.1999092e-08 0)
(0.0005450645 -7.0651675e-08 0)
(0.00054556576 -6.9195876e-08 0)
(0.00054606062 -6.7645065e-08 0)
(0.00054654805 -6.6011843e-08 0)
(0.00054702711 -6.4308058e-08 0)
(0.00054749698 -6.2544838e-08 0)
(0.00054795692 -6.0732604e-08 0)
(0.00054840631 -5.8881097e-08 0)
(0.0005488446 -5.6999403e-08 0)
(0.00054927131 -5.5095973e-08 0)
(0.00054968607 -5.3178645e-08 0)
(0.00055008854 -5.1254671e-08 0)
(0.00055047849 -4.9330737e-08 0)
(0.00055085571 -4.7412989e-08 0)
(0.00055122008 -4.550705e-08 0)
(0.00055157151 -4.3618051e-08 0)
(0.00055190998 -4.1750648e-08 0)
(0.0005522355 -3.9909045e-08 0)
(0.00055254812 -3.8097018e-08 0)
(0.00055284793 -3.6317937e-08 0)
(0.00055313508 -3.4574786e-08 0)
(0.0005534097 -3.2870185e-08 0)
(0.00055367199 -3.120641e-08 0)
(0.00055392216 -2.9585415e-08 0)
(0.00055416044 -2.800885e-08 0)
(0.00055438708 -2.6478083e-08 0)
(0.00055460235 -2.4994215e-08 0)
(0.00055480653 -2.35581e-08 0)
(0.00055499993 -2.2170365e-08 0)
(0.00055518284 -2.0831423e-08 0)
(0.00055535559 -1.9541492e-08 0)
(0.00055551848 -1.8300609e-08 0)
(0.00055567186 -1.7108647e-08 0)
(0.00055581604 -1.5965326e-08 0)
(0.00055595137 -1.4870234e-08 0)
(0.00055607817 -1.382283e-08 0)
(0.00055619678 -1.2822465e-08 0)
(0.00055630753 -1.186839e-08 0)
(0.00055641075 -1.0959767e-08 0)
(0.00055650677 -1.009568e-08 0)
(0.0005565959 -9.2751479e-09 0)
(0.00055667847 -8.4971264e-09 0)
(0.00055675479 -7.7605268e-09 0)
(0.00055682515 -7.064213e-09 0)
(0.00055688987 -6.4070211e-09 0)
(0.00055694924 -5.7877529e-09 0)
(0.00055700353 -5.2051975e-09 0)
(0.00055705303 -4.658121e-09 0)
(0.00055709801 -4.145289e-09 0)
(0.00055713873 -3.665454e-09 0)
(0.00055717545 -3.2173782e-09 0)
(0.0005572084 -2.7998187e-09 0)
(0.00055723784 -2.4115512e-09 0)
(0.00055726397 -2.0513524e-09 0)
(0.00055728704 -1.7180248e-09 0)
(0.00055730724 -1.4103769e-09 0)
(0.00055732478 -1.1272486e-09 0)
(0.00055733985 -8.6748966e-10 0)
(0.00055735265 -6.2998565e-10 0)
(0.00055736335 -4.1363476e-10 0)
(0.00055737212 -2.1737427e-10 0)
(0.00055737913 -4.015617e-11 0)
(0.00055738452 1.1902635e-10 0)
(0.00055738845 2.6116378e-10 0)
(0.00055739106 3.872042e-10 0)
(0.00055739247 4.9807813e-10 0)
(0.00055739281 5.9467318e-10 0)
(0.00055739221 6.7785829e-10 0)
(0.00055739076 7.4845947e-10 0)
(0.00055738859 8.0728281e-10 0)
(0.00055738578 8.5509151e-10 0)
(0.00055738243 8.9262695e-10 0)
(0.00055737863 9.2058699e-10 0)
(0.00055737445 9.3964426e-10 0)
(0.00055736998 9.5042529e-10 0)
(0.00055736528 9.5352491e-10 0)
(0.00055736042 9.4948494e-10 0)
(0.00055735546 9.388036e-10 0)
(0.00055735046 9.2191173e-10 0)
(0.00055734548 8.9917697e-10 0)
(0.00055734056 8.7087661e-10 0)
(0.00055733575 8.3720278e-10 0)
(0.0005573311 7.9824342e-10 0)
(0.00055732666 7.5402199e-10 0)
(0.00055732246 7.0455122e-10 0)
(0.00055731854 6.5003972e-10 0)
(0.00055731494 5.9129997e-10 0)
(0.00055731169 5.3059076e-10 0)
(0.00055730879 4.7348405e-10 0)
(0.00055730625 4.3019129e-10 0)
(0.00055730398 4.144063e-10 0)
(0.00055730166 4.8358434e-10 0)
(0.00055729884 9.2322901e-10 0)
(-4.7865094e-05 0.00014413607 0)
(-0.00032305028 0.00028075251 0)
(-0.00063631352 0.00028285512 0)
(-0.00088267336 0.00020136082 0)
(-0.0010034653 8.9669306e-05 0)
(-0.00099443213 -1.8671846e-05 0)
(-0.0008748607 -0.00010746701 0)
(-0.00067228048 -0.00017170309 0)
(-0.00041450895 -0.00021244492 0)
(-0.00012575466 -0.00023345059 0)
(0.00017474349 -0.00023920748 0)
(0.00047265125 -0.00023395296 0)
(0.00075792973 -0.00022125633 0)
(0.0010239844 -0.00020392858 0)
(0.0012668834 -0.00018407435 0)
(0.0014846645 -0.00016320948 0)
(0.0016767791 -0.00014238693 0)
(0.0018436621 -0.00012230905 0)
(0.0019864066 -0.00010341982 0)
(0.0021065232 -8.5976905e-05 0)
(0.0022057636 -7.0106165e-05 0)
(0.0022859951 -5.5842073e-05 0)
(0.0023491103 -4.315725e-05 0)
(0.0023969662 -3.1983883e-05 0)
(0.0024313419 -2.2229112e-05 0)
(0.0024539127 -1.3786009e-05 0)
(0.002466234 -6.5413272e-06 0)
(0.0024697342 -3.8085896e-07 0)
(0.0024657124 4.8069736e-06 0)
(0.0024553404 9.1288286e-06 0)
(0.0024396679 1.2684613e-05 0)
(0.0024196284 1.5566686e-05 0)
(0.0023960483 1.7859528e-05 0)
(0.0023696543 1.9639747e-05 0)
(0.0023410822 2.0976317e-05 0)
(0.0023108855 2.1930951e-05 0)
(0.0022795434 2.2558574e-05 0)
(0.0022474683 2.2907833e-05 0)
(0.0022150131 2.3021635e-05 0)
(0.0021824781 2.2937674e-05 0)
(0.0021501166 2.2688946e-05 0)
(0.0021181408 2.2304233e-05 0)
(0.0020867267 2.1808564e-05 0)
(0.0020560187 2.1223627e-05 0)
(0.0020261334 2.056816e-05 0)
(0.0019971636 1.9858295e-05 0)
(0.0019691812 1.9107875e-05 0)
(0.00194224 1.8328732e-05 0)
(0.0019163785 1.7530939e-05 0)
(0.001891622 1.6723036e-05 0)
(0.0018679844 1.5912224e-05 0)
(0.00184547 1.510454e-05 0)
(0.0018240751 1.4305013e-05 0)
(0.0018037891 1.3517797e-05 0)
(0.001784596 1.2746288e-05 0)
(0.001766475 1.1993232e-05 0)
(0.0017494013 1.1260814e-05 0)
(0.0017333475 1.0550735e-05 0)
(0.0017182835 9.8642829e-06 0)
(0.0017041773 9.2023947e-06 0)
(0.0016909958 8.5657056e-06 0)
(0.0016787048 7.9545959e-06 0)
(0.0016672695 7.3692308e-06 0)
(0.0016566548 6.809594e-06 0)
(0.0016468255 6.2755179e-06 0)
(0.0016377466 5.7667088e-06 0)
(0.0016293834 5.2827691e-06 0)
(0.0016217017 4.8232167e-06 0)
(0.001614668 4.3875008e-06 0)
(0.0016082494 3.9750164e-06 0)
(0.0016024137 3.5851164e-06 0)
(0.0015971296 3.2171214e-06 0)
(0.0015923669 2.8703289e-06 0)
(0.0015880961 2.5440207e-06 0)
(0.0015842886 2.237469e-06 0)
(0.0015809171 1.9499417e-06 0)
(0.0015779549 1.680707e-06 0)
(0.0015753766 1.4290371e-06 0)
(0.0015731576 1.194211e-06 0)
(0.0015712743 9.7551719e-07 0)
(0.0015697042 7.7225586e-07 0)
(0.0015684256 5.8374022e-07 0)
(0.0015674178 4.0929805e-07 0)
(0.0015666611 2.4827259e-07 0)
(0.0015661366 1.0002342e-07 0)
(0.0015658263 -3.607296e-08 0)
(0.001565713 -1.6062282e-07 0)
(0.0015657806 -2.7421486e-07 0)
(0.0015660136 -3.7742004e-07 0)
(0.0015663972 -4.7079163e-07 0)
(0.0015669175 -5.5486511e-07 0)
(0.0015675615 -6.3015828e-07 0)
(0.0015683166 -6.9717137e-07 0)
(0.0015691711 -7.5638723e-07 0)
(0.001570114 -8.082715e-07 0)
(0.0015711348 -8.5327283e-07 0)
(0.0015722238 -8.9182314e-07 0)
(0.0015733718 -9.2433785e-07 0)
(0.0015745701 -9.5121618e-07 0)
(0.0015758107 -9.7284138e-07 0)
(0.0015770861 -9.8958106e-07 0)
(0.0015783894 -1.0017875e-06 0)
(0.0015797139 -1.0097977e-06 0)
(0.0015810538 -1.0139342e-06 0)
(0.0015824034 -1.0145049e-06 0)
(0.0015837577 -1.0118034e-06 0)
(0.0015851117 -1.0061097e-06 0)
(0.0015864614 -9.9769004e-07 0)
(0.0015878026 -9.8679748e-07 0)
(0.0015891319 -9.7367219e-07 0)
(0.0015904458 -9.5854174e-07 0)
(0.0015917416 -9.4162141e-07 0)
(0.0015930166 -9.2311457e-07 0)
(0.0015942684 -9.0321297e-07 0)
(0.001595495 -8.8209713e-07 0)
(0.0015966945 -8.5993662e-07 0)
(0.0015978654 -8.3689046e-07 0)
(0.0015990063 -8.1310745e-07 0)
(0.0016001161 -7.8872651e-07 0)
(0.0016011939 -7.6387704e-07 0)
(0.0016022388 -7.386793e-07 0)
(0.0016032503 -7.132447e-07 0)
(0.001604228 -6.8767622e-07 0)
(0.0016051716 -6.6206871e-07 0)
(0.0016060809 -6.3650929e-07 0)
(0.001606956 -6.1107764e-07 0)
(0.0016077969 -5.8584638e-07 0)
(0.0016086038 -5.6088141e-07 0)
(0.001609377 -5.3624223e-07 0)
(0.0016101169 -5.1198226e-07 0)
(0.0016108239 -4.881492e-07 0)
(0.0016114987 -4.6478532e-07 0)
(0.0016121417 -4.4192776e-07 0)
(0.0016127537 -4.1960886e-07 0)
(0.0016133352 -3.9785642e-07 0)
(0.0016138871 -3.7669404e-07 0)
(0.0016144101 -3.5614134e-07 0)
(0.0016149051 -3.3621424e-07 0)
(0.0016153728 -3.1692526e-07 0)
(0.0016158141 -2.9828371e-07 0)
(0.0016162298 -2.8029597e-07 0)
(0.0016166208 -2.6296572e-07 0)
(0.0016169881 -2.4629412e-07 0)
(0.0016173324 -2.3028008e-07 0)
(0.0016176547 -2.149204e-07 0)
(0.0016179559 -2.0021001e-07 0)
(0.0016182368 -1.8614212e-07 0)
(0.0016184983 -1.7270842e-07 0)
(0.0016187412 -1.5989918e-07 0)
(0.0016189665 -1.477035e-07 0)
(0.0016191749 -1.3610937e-07 0)
(0.0016193672 -1.2510383e-07 0)
(0.0016195443 -1.1467312e-07 0)
(0.0016197069 -1.0480278e-07 0)
(0.0016198559 -9.5477729e-08 0)
(0.0016199919 -8.668243e-08 0)
(0.0016201157 -7.8400932e-08 0)
(0.0016202279 -7.0616985e-08 0)
(0.0016203294 -6.3314102e-08 0)
(0.0016204206 -5.6475653e-08 0)
(0.0016205024 -5.0084911e-08 0)
(0.0016205752 -4.4125132e-08 0)
(0.0016206397 -3.8579597e-08 0)
(0.0016206964 -3.3431675e-08 0)
(0.0016207459 -2.8664853e-08 0)
(0.0016207888 -2.4262797e-08 0)
(0.0016208254 -2.0209369e-08 0)
(0.0016208564 -1.6488676e-08 0)
(0.0016208822 -1.3085086e-08 0)
(0.0016209031 -9.9832681e-09 0)
(0.0016209197 -7.1682001e-09 0)
(0.0016209323 -4.6252053e-09 0)
(0.0016209413 -2.3399538e-09 0)
(0.0016209471 -2.984975e-10 0)
(0.0016209499 1.5127334e-09 0)
(0.0016209502 3.1068965e-09 0)
(0.0016209482 4.4967415e-09 0)
(0.0016209442 5.6945761e-09 0)
(0.0016209385 6.7122668e-09 0)
(0.0016209313 7.5612005e-09 0)
(0.0016209229 8.2522776e-09 0)
(0.0016209134 8.7958628e-09 0)
(0.0016209032 9.2017631e-09 0)
(0.0016208923 9.4791609e-09 0)
(0.0016208809 9.6365717e-09 0)
(0.0016208693 9.6817569e-09 0)
(0.0016208576 9.6216707e-09 0)
(0.0016208459 9.4623842e-09 0)
(0.0016208344 9.2091002e-09 0)
(0.0016208231 8.8662444e-09 0)
(0.0016208124 8.4378522e-09 0)
(0.0016208021 7.9283616e-09 0)
(0.0016207925 7.3443026e-09 0)
(0.0016207836 6.6973162e-09 0)
(0.0016207756 6.0094358e-09 0)
(0.0016207685 5.3218007e-09 0)
(0.0016207622 4.7075458e-09 0)
(0.0016207567 4.2870666e-09 0)
(0.0016207516 4.2343763e-09 0)
(0.0016207462 4.7215136e-09 0)
(-6.8424519e-05 0.00035360641 0)
(-0.00042504454 0.00062801993 0)
(-0.00077145402 0.00059081013 0)
(-0.00099442823 0.00038296732 0)
(-0.0010436607 0.00012077326 0)
(-0.00093110249 -0.00012574072 0)
(-0.00068982044 -0.00032406426 0)
(-0.00035733425 -0.00046529251 0)
(3.1880788e-05 -0.00055306341 0)
(0.00044933844 -0.00059635893 0)
(0.00087311778 -0.00060540941 0)
(0.0012872229 -0.00058968436 0)
(0.0016805553 -0.00055711592 0)
(0.0020458816 -0.00051394531 0)
(0.0023789178 -0.00046488009 0)
(0.002677571 -0.00041335178 0)
(0.0029413403 -0.00036178347 0)
(0.0031708541 -0.00031182757 0)
(0.0033675185 -0.00026456097 0)
(0.0035332508 -0.00022063835 0)
(0.0036702811 -0.00018040927 0)
(0.0037810054 -0.00014400625 0)
(0.0038678769 -0.00011141028 0)
(0.0039333285 -8.2499294e-05 0)
(0.0039797176 -5.708383e-05 0)
(0.0040092888 -3.4933123e-05 0)
(0.004024149 -1.5794093e-05 0)
(0.004026254 5.9501942e-07 0)
(0.004017401 1.4495302e-05 0)
(0.0039992279 2.6160417e-05 0)
(0.0039732158 3.5831601e-05 0)
(0.0039406957 4.3734876e-05 0)
(0.0039028561 5.0079542e-05 0)
(0.0038607522 5.5057574e-05 0)
(0.0038153154 5.8843663e-05 0)
(0.0037673638 6.1595692e-05 0)
(0.0037176116 6.3455516e-05 0)
(0.0036666789 6.4549928e-05 0)
(0.0036151012 6.4991733e-05 0)
(0.0035633377 6.4880867e-05 0)
(0.0035117796 6.4305522e-05 0)
(0.0034607574 6.3343243e-05 0)
(0.0034105483 6.2061976e-05 0)
(0.0033613817 6.0521056e-05 0)
(0.0033134456 5.8772126e-05 0)
(0.0032668912 5.6859984e-05 0)
(0.003221838 5.4823353e-05 0)
(0.0031783773 5.2695586e-05 0)
(0.0031365768 5.05053e-05 0)
(0.0030964828 4.8276941e-05 0)
(0.003058124 4.6031297e-05 0)
(0.0030215137 4.3785951e-05 0)
(0.0029866521 4.1555683e-05 0)
(0.0029535283 3.9352831e-05 0)
(0.0029221221 3.7187603e-05 0)
(0.0028924056 3.5068363e-05 0)
(0.0028643444 3.3001869e-05 0)
(0.002837899 3.0993498e-05 0)
(0.0028130255 2.9047429e-05 0)
(0.0027896768 2.7166814e-05 0)
(0.0027678034 2.5353925e-05 0)
(0.0027473538 2.3610277e-05 0)
(0.002728275 2.1936743e-05 0)
(0.0027105137 2.0333654e-05 0)
(0.0026940158 1.8800877e-05 0)
(0.0026787272 1.7337895e-05 0)
(0.0026645945 1.5943868e-05 0)
(0.0026515643 1.4617688e-05 0)
(0.0026395843 1.3358029e-05 0)
(0.002628603 1.216339e-05 0)
(0.00261857 1.1032125e-05 0)
(0.0026094361 9.9624794e-06 0)
(0.0026011535 8.9526146e-06 0)
(0.0025936755 8.0006299e-06 0)
(0.0025869571 7.1045823e-06 0)
(0.0025809545 6.262503e-06 0)
(0.0025756255 5.4724109e-06 0)
(0.0025709294 4.7323248e-06 0)
(0.0025668271 4.0402724e-06 0)
(0.0025632807 3.3942992e-06 0)
(0.0025602542 2.7924747e-06 0)
(0.0025577127 2.2328981e-06 0)
(0.002555623 1.713703e-06 0)
(0.0025539532 1.2330606e-06 0)
(0.002552673 7.8918298e-07 0)
(0.0025517532 3.8032515e-07 0)
(0.0025511661 4.7867896e-09 0)
(0.0025508855 -3.3908653e-07 0)
(0.0025508861 -6.5290261e-07 0)
(0.0025511441 -9.3822181e-07 0)
(0.0025516369 -1.196557e-06 0)
(0.0025523431 -1.4293735e-06 0)
(0.0025532423 -1.6380886e-06 0)
(0.0025543154 -1.8240726e-06 0)
(0.0025555442 -1.9886483e-06 0)
(0.0025569117 -2.1330922e-06 0)
(0.0025584016 -2.2586344e-06 0)
(0.0025599991 -2.3664594e-06 0)
(0.0025616897 -2.4577069e-06 0)
(0.0025634603 -2.533472e-06 0)
(0.0025652984 -2.5948065e-06 0)
(0.0025671924 -2.6427191e-06 0)
(0.0025691316 -2.6781763e-06 0)
(0.0025711057 -2.7021034e-06 0)
(0.0025731057 -2.7153849e-06 0)
(0.0025751227 -2.7188657e-06 0)
(0.002577149 -2.7133516e-06 0)
(0.0025791771 -2.6996103e-06 0)
(0.0025812003 -2.6783721e-06 0)
(0.0025832126 -2.650331e-06 0)
(0.0025852084 -2.6161453e-06 0)
(0.0025871826 -2.5764389e-06 0)
(0.0025891306 -2.5318016e-06 0)
(0.0025910484 -2.4827906e-06 0)
(0.0025929323 -2.4299312e-06 0)
(0.0025947791 -2.3737177e-06 0)
(0.0025965859 -2.3146143e-06 0)
(0.0025983503 -2.2530563e-06 0)
(0.0026000702 -2.1894508e-06 0)
(0.0026017438 -2.1241781e-06 0)
(0.0026033695 -2.057592e-06 0)
(0.0026049462 -1.9900215e-06 0)
(0.002606473 -1.9217713e-06 0)
(0.0026079491 -1.8531229e-06 0)
(0.0026093741 -1.7843357e-06 0)
(0.0026107476 -1.7156479e-06 0)
(0.0026120698 -1.6472772e-06 0)
(0.0026133405 -1.5794224e-06 0)
(0.0026145602 -1.5122634e-06 0)
(0.0026157292 -1.4459631e-06 0)
(0.0026168481 -1.3806676e-06 0)
(0.0026179175 -1.3165074e-06 0)
(0.0026189383 -1.2535982e-06 0)
(0.0026199112 -1.1920417e-06 0)
(0.0026208373 -1.1319266e-06 0)
(0.0026217176 -1.0733292e-06 0)
(0.0026225532 -1.0163144e-06 0)
(0.0026233451 -9.6093601e-07 0)
(0.0026240947 -9.0723818e-07 0)
(0.0026248032 -8.552555e-07 0)
(0.0026254717 -8.0501399e-07 0)
(0.0026261017 -7.5653161e-07 0)
(0.0026266944 -7.0981898e-07 0)
(0.0026272512 -6.6487994e-07 0)
(0.0026277733 -6.2171211e-07 0)
(0.0026282622 -5.8030746e-07 0)
(0.0026287191 -5.4065281e-07 0)
(0.0026291453 -5.0273031e-07 0)
(0.0026295422 -4.6651794e-07 0)
(0.0026299111 -4.3198992e-07 0)
(0.0026302532 -3.9911715e-07 0)
(0.0026305699 -3.6786755e-07 0)
(0.0026308622 -3.3820649e-07 0)
(0.0026311315 -3.1009706e-07 0)
(0.002631379 -2.8350045e-07 0)
(0.0026316057 -2.5837623e-07 0)
(0.0026318129 -2.3468261e-07 0)
(0.0026320016 -2.1237668e-07 0)
(0.0026321729 -1.914147e-07 0)
(0.0026323278 -1.7175228e-07 0)
(0.0026324673 -1.5334457e-07 0)
(0.0026325924 -1.3614648e-07 0)
(0.002632704 -1.2011281e-07 0)
(0.002632803 -1.0519843e-07 0)
(0.0026328904 -9.1358379e-08 0)
(0.0026329668 -7.8548048e-08 0)
(0.0026330332 -6.6723244e-08 0)
(0.0026330902 -5.5840309e-08 0)
(0.0026331386 -4.585621e-08 0)
(0.0026331792 -3.6728621e-08 0)
(0.0026332125 -2.8415997e-08 0)
(0.0026332392 -2.0877633e-08 0)
(0.0026332599 -1.4073736e-08 0)
(0.0026332752 -7.9654649e-09 0)
(0.0026332857 -2.514994e-09 0)
(0.0026332917 2.314449e-09 0)
(0.0026332939 6.5585287e-09 0)
(0.0026332926 1.0251759e-08 0)
(0.0026332884 1.3427444e-08 0)
(0.0026332816 1.6117628e-08 0)
(0.0026332725 1.8353018e-08 0)
(0.0026332616 2.0162908e-08 0)
(0.0026332492 2.1575077e-08 0)
(0.0026332356 2.2615673e-08 0)
(0.002633221 2.3309079e-08 0)
(0.0026332058 2.3677772e-08 0)
(0.0026331903 2.3742187e-08 0)
(0.0026331745 2.3520651e-08 0)
(0.0026331589 2.3029445e-08 0)
(0.0026331435 2.2283189e-08 0)
(0.0026331287 2.1295762e-08 0)
(0.0026331144 2.0082229e-08 0)
(0.0026331011 1.8662356e-08 0)
(0.0026330887 1.7066638e-08 0)
(0.0026330774 1.5345874e-08 0)
(0.0026330674 1.3585108e-08 0)
(0.0026330586 1.192125e-08 0)
(0.002633051 1.0559005e-08 0)
(0.0026330443 9.7685381e-09 0)
(0.0026330376 9.8060861e-09 0)
(-8.7360757e-05 0.000612016 0)
(-0.0004644472 0.00099519298 0)
(-0.00072944484 0.00085244117 0)
(-0.00080115397 0.00046431639 0)
(-0.0006696693 2.1231205e-05 0)
(-0.00037796549 -0.00037424137 0)
(2.4321501e-05 -0.00068036635 0)
(0.00049383414 -0.00089042477 0)
(0.00099658847 -0.0010146191 0)
(0.0015073952 -0.0010692514 0)
(0.0020082578 -0.0010711878 0)
(0.0024867431 -0.0010353833 0)
(0.0029345961 -0.00097407763 0)
(0.0033466717 -0.000896804 0)
(0.0037201303 -0.00081073506 0)
(0.0040538369 -0.00072111824 0)
(0.0043479098 -0.00063169158 0)
(0.004603377 -0.00054503893 0)
(0.0048219134 -0.00046287636 0)
(0.0050056365 -0.0003862755 0)
(0.0051569481 -0.00031583475 0)
(0.0052784106 -0.00025180898 0)
(0.0053726529 -0.00019420741 0)
(0.0054422975 -0.0001428673 0)
(0.0054899068 -9.7509194e-05 0)
(0.0055179432 -5.7778298e-05 0)
(0.0055287418 -2.3275386e-05 0)
(0.0055244922 6.4204472e-06 0)
(0.0055072273 3.1735957e-05 0)
(0.0054788182 5.3090901e-05 0)
(0.0054409746 7.0889257e-05 0)
(0.0053952484 8.5513674e-05 0)
(0.0053430383 9.7322081e-05 0)
(0.0052855985 0.00010664589 0)
(0.0052240463 0.00011378933 0)
(0.0051593716 0.00011902967 0)
(0.0050924468 0.00012261803 0)
(0.0050240359 0.00012478054 0)
(0.0049548044 0.00012571988 0)
(0.0048853279 0.00012561683 0)
(0.0048161011 0.00012463204 0)
(0.0047475459 0.00012290768 0)
(0.0046800191 0.00012056911 0)
(0.0046138192 0.00011772649 0)
(0.004549193 0.0001144763 0)
(0.0044863418 0.00011090272 0)
(0.0044254265 0.00010707897 0)
(0.0043665725 0.00010306849 0)
(0.0043098744 9.8926033e-05 0)
(0.0042553998 9.4698661e-05 0)
(0.0042031927 9.0426653e-05 0)
(0.0041532772 8.6144296e-05 0)
(0.0041056597 8.1880615e-05 0)
(0.004060332 7.7660018e-05 0)
(0.0040172731 7.3502869e-05 0)
(0.0039764516 6.9425999e-05 0)
(0.003937827 6.5443165e-05 0)
(0.0039013515 6.1565444e-05 0)
(0.0038669715 5.7801593e-05 0)
(0.0038346284 5.415836e-05 0)
(0.0038042599 5.064076e-05 0)
(0.0037758008 4.7252318e-05 0)
(0.003749184 4.3995281e-05 0)
(0.0037243406 4.0870806e-05 0)
(0.0037012012 3.7879122e-05 0)
(0.0036796959 3.5019674e-05 0)
(0.0036597549 3.2291247e-05 0)
(0.003641309 2.9692075e-05 0)
(0.0036242894 2.7219938e-05 0)
(0.0036086288 2.4872239e-05 0)
(0.0035942607 2.2646078e-05 0)
(0.0035811202 2.0538316e-05 0)
(0.0035691439 1.8545623e-05 0)
(0.0035582701 1.6664528e-05 0)
(0.0035484388 1.4891454e-05 0)
(0.0035395917 1.3222754e-05 0)
(0.0035316726 1.1654741e-05 0)
(0.0035246271 1.0183708e-05 0)
(0.0035184026 8.8059519e-06 0)
(0.0035129485 7.517789e-06 0)
(0.0035082162 6.3155694e-06 0)
(0.0035041589 5.1956896e-06 0)
(0.0035007318 4.1546016e-06 0)
(0.0034978918 3.1888217e-06 0)
(0.0034955979 2.294936e-06 0)
(0.0034938107 1.4696065e-06 0)
(0.0034924925 7.0957477e-07 0)
(0.0034916077 1.1665125e-08 0)
(0.0034911221 -6.2721297e-07 0)
(0.0034910031 -1.2100636e-06 0)
(0.00349122 -1.7398028e-06 0)
(0.0034917435 -2.2192585e-06 0)
(0.0034925457 -2.6511699e-06 0)
(0.0034936004 -3.0381871e-06 0)
(0.0034948828 -3.3828721e-06 0)
(0.0034963693 -3.6876989e-06 0)
(0.0034980378 -3.9550542e-06 0)
(0.0034998675 -4.1872383e-06 0)
(0.0035018387 -4.3864663e-06 0)
(0.0035039332 -4.5548689e-06 0)
(0.0035061336 -4.6944935e-06 0)
(0.0035084239 -4.807306e-06 0)
(0.003510789 -4.8951915e-06 0)
(0.0035132149 -4.9599557e-06 0)
(0.0035156886 -5.0033268e-06 0)
(0.003518198 -5.0269566e-06 0)
(0.0035207319 -5.0324218e-06 0)
(0.00352328 -5.0212259e-06 0)
(0.0035258328 -4.9948008e-06 0)
(0.0035283816 -4.954508e-06 0)
(0.0035309185 -4.9016405e-06 0)
(0.0035334362 -4.8374246e-06 0)
(0.0035359282 -4.7630214e-06 0)
(0.0035383885 -4.6795284e-06 0)
(0.0035408117 -4.5879816e-06 0)
(0.0035431933 -4.4893572e-06 0)
(0.0035455288 -4.3845733e-06 0)
(0.0035478147 -4.2744915e-06 0)
(0.0035500477 -4.1599193e-06 0)
(0.003552225 -4.0416117e-06 0)
(0.0035543444 -3.9202727e-06 0)
(0.0035564037 -3.7965578e-06 0)
(0.0035584014 -3.6710754e-06 0)
(0.0035603363 -3.5443888e-06 0)
(0.0035622074 -3.4170183e-06 0)
(0.0035640141 -3.2894426e-06 0)
(0.003565756 -3.162101e-06 0)
(0.0035674329 -3.0353949e-06 0)
(0.003569045 -2.9096901e-06 0)
(0.0035705925 -2.7853179e-06 0)
(0.003572076 -2.6625774e-06 0)
(0.0035734961 -2.541737e-06 0)
(0.0035748537 -2.4230358e-06 0)
(0.0035761496 -2.3066858e-06 0)
(0.003577385 -2.1928731e-06 0)
(0.0035785611 -2.0817593e-06 0)
(0.0035796792 -1.9734836e-06 0)
(0.0035807406 -1.8681637e-06 0)
(0.0035817468 -1.7658974e-06 0)
(0.0035826992 -1.6667641e-06 0)
(0.0035835996 -1.5708259e-06 0)
(0.0035844493 -1.478129e-06 0)
(0.0035852502 -1.3887049e-06 0)
(0.0035860037 -1.3025714e-06 0)
(0.0035867117 -1.2197339e-06 0)
(0.0035873758 -1.1401865e-06 0)
(0.0035879976 -1.0639128e-06 0)
(0.0035885789 -9.9088712e-07 0)
(0.0035891213 -9.2107497e-07 0)
(0.0035896264 -8.5443442e-07 0)
(0.0035900961 -7.9091658e-07 0)
(0.0035905317 -7.3046649e-07 0)
(0.003590935 -6.7302379e-07 0)
(0.0035913076 -6.1852341e-07 0)
(0.0035916508 -5.6689618e-07 0)
(0.0035919664 -5.1806946e-07 0)
(0.0035922557 -4.719676e-07 0)
(0.0035925201 -4.2851254e-07 0)
(0.0035927611 -3.8762421e-07 0)
(0.00359298 -3.49221e-07 0)
(0.0035931781 -3.1322012e-07 0)
(0.0035933568 -2.7953803e-07 0)
(0.0035935171 -2.480907e-07 0)
(0.0035936604 -2.1879396e-07 0)
(0.0035937877 -1.9156378e-07 0)
(0.0035939002 -1.663165e-07 0)
(0.0035939989 -1.4296907e-07 0)
(0.0035940848 -1.2143927e-07 0)
(0.0035941589 -1.0164588e-07 0)
(0.0035942222 -8.3508851e-08 0)
(0.0035942754 -6.6949474e-08 0)
(0.0035943196 -5.1890497e-08 0)
(0.0035943553 -3.825626e-08 0)
(0.0035943835 -2.5972811e-08 0)
(0.0035944049 -1.4968008e-08 0)
(0.0035944201 -5.1716267e-09 0)
(0.0035944298 3.4845488e-09 0)
(0.0035944346 1.106662e-08 0)
(0.0035944352 1.7638473e-08 0)
(0.0035944319 2.3261664e-08 0)
(0.0035944254 2.7995289e-08 0)
(0.0035944161 3.1895843e-08 0)
(0.0035944045 3.501704e-08 0)
(0.0035943911 3.7409629e-08 0)
(0.0035943761 3.9121173e-08 0)
(0.00359436 4.0195838e-08 0)
(0.0035943431 4.0674213e-08 0)
(0.0035943258 4.0593251e-08 0)
(0.0035943083 3.9986458e-08 0)
(0.0035942909 3.8884583e-08 0)
(0.0035942739 3.731718e-08 0)
(0.0035942576 3.5315629e-08 0)
(0.0035942421 3.2918464e-08 0)
(0.0035942277 3.0180046e-08 0)
(0.0035942146 2.7183768e-08 0)
(0.0035942028 2.4060496e-08 0)
(0.0035941925 2.1010552e-08 0)
(0.0035941837 1.8322419e-08 0)
(0.0035941761 1.637522e-08 0)
(0.0035941686 1.5622626e-08 0)
(-0.00010750415 0.000889878 0)
(-0.00043573814 0.0012816885 0)
(-0.00047399492 0.00093178747 0)
(-0.00024693198 0.00031736847 0)
(0.00017561758 -0.0003045715 0)
(0.00071150614 -0.00081992994 0)
(0.0012992433 -0.001195152 0)
(0.0018992435 -0.0014363485 0)
(0.002487676 -0.0015651143 0)
(0.0030505803 -0.0016063502 0)
(0.0035798688 -0.0015830087 0)
(0.00407093 -0.0015142764 0)
(0.0045212651 -0.0014153515 0)
(0.0049297434 -0.0012978755 0)
(0.0052961931 -0.001170555 0)
(0.0056211629 -0.0010397705 0)
(0.0059057655 -0.00091010174 0)
(0.0061515589 -0.00078475276 0)
(0.0063604469 -0.00066588563 0)
(0.0065345912 -0.00055487854 0)
(0.0066763332 -0.00045252376 0)
(0.006788124 -0.00035917916 0)
(0.0068724651 -0.00027488443 0)
(0.0069318571 -0.00019945021 0)
(0.0069687585 -0.00013252652 0)
(0.0069855523 -7.3655344e-05 0)
(0.0069845209 -2.2310827e-05 0)
(0.006967827 2.207058e-05 0)
(0.0069374994 6.0068313e-05 0)
(0.0068954269 9.2258279e-05 0)
(0.0068433547 0.00011920078 0)
(0.0067828837 0.00014143197 0)
(0.0067154731 0.0001594582 0)
(0.0066424444 0.00017375251 0)
(0.0065649872 0.00018475289 0)
(0.0064841661 0.00019286174 0)
(0.0064009285 0.00019844629 0)
(0.0063161117 0.00020183976 0)
(0.0062304522 0.00020334287 0)
(0.0061445927 0.00020322577 0)
(0.0060590909 0.00020173007 0)
(0.0059744266 0.00019907098 0)
(0.0058910092 0.00019543949 0)
(0.0058091847 0.00019100443 0)
(0.005729242 0.00018591455 0)
(0.0056514191 0.00018030042 0)
(0.0055759085 0.00017427626 0)
(0.0055028627 0.00016794159 0)
(0.0054323984 0.00016138282 0)
(0.005364601 0.00015467466 0)
(0.0052995287 0.0001478814 0)
(0.0052372156 0.00014105812 0)
(0.0051776754 0.00013425174 0)
(0.0051209037 0.00012750196 0)
(0.0050668808 0.00012084216 0)
(0.005015574 0.00011430015 0)
(0.0049669396 0.00010789884 0)
(0.0049209248 0.0001016569 0)
(0.0048774689 9.5589251e-05 0)
(0.0048365052 8.9707606e-05 0)
(0.0047979621 8.4020853e-05 0)
(0.0047617639 7.8535457e-05 0)
(0.004727832 7.3255792e-05 0)
(0.004696086 6.8184435e-05 0)
(0.0046664436 6.3322424e-05 0)
(0.0046388222 5.8669491e-05 0)
(0.0046131387 5.422426e-05 0)
(0.0045893103 4.9984423e-05 0)
(0.0045672549 4.594689e-05 0)
(0.0045468914 4.210793e-05 0)
(0.0045281399 3.846328e-05 0)
(0.0045109217 3.5008251e-05 0)
(0.0044951603 3.1737815e-05 0)
(0.0044807806 2.8646678e-05 0)
(0.0044677097 2.5729348e-05 0)
(0.0044558767 2.2980191e-05 0)
(0.0044452127 2.0393478e-05 0)
(0.0044356512 1.7963426e-05 0)
(0.0044271278 1.5684236e-05 0)
(0.0044195804 1.3550117e-05 0)
(0.0044129491 1.1555317e-05 0)
(0.0044071763 9.6941385e-06 0)
(0.0044022068 7.9609601e-06 0)
(0.0043979872 6.3502487e-06 0)
(0.0043944669 4.8565718e-06 0)
(0.0043915969 3.4746074e-06 0)
(0.0043893307 2.1991513e-06 0)
(0.0043876237 1.0251234e-06 0)
(0.0043864336 -5.2427325e-08 0)
(0.0043857198 -1.0383195e-06 0)
(0.0043854437 -1.9372369e-06 0)
(0.004385569 -2.753727e-06 0)
(0.0043860606 -3.4921993e-06 0)
(0.0043868858 -4.1569254e-06 0)
(0.0043880133 -4.7520381e-06 0)
(0.0043894136 -5.2815323e-06 0)
(0.0043910589 -5.7492655e-06 0)
(0.0043929229 -6.1589589e-06 0)
(0.0043949807 -6.5141985e-06 0)
(0.0043972093 -6.818437e-06 0)
(0.0043995867 -7.0749946e-06 0)
(0.0044020925 -7.2870616e-06 0)
(0.0044047076 -7.4576996e-06 0)
(0.0044074141 -7.5898441e-06 0)
(0.0044101953 -7.6863059e-06 0)
(0.0044130358 -7.749774e-06 0)
(0.0044159212 -7.7828174e-06 0)
(0.0044188384 -7.7878876e-06 0)
(0.0044217749 -7.7673209e-06 0)
(0.0044247195 -7.7233412e-06 0)
(0.0044276619 -7.6580619e-06 0)
(0.0044305927 -7.5734893e-06 0)
(0.0044335032 -7.4715247e-06 0)
(0.0044363855 -7.3539673e-06 0)
(0.0044392327 -7.222517e-06 0)
(0.0044420384 -7.078777e-06 0)
(0.0044447969 -6.9242571e-06 0)
(0.0044475033 -6.7603762e-06 0)
(0.004450153 -6.5884652e-06 0)
(0.0044527423 -6.4097702e-06 0)