/*--------------------------------*- C++ -*----------------------------------*\
| =========                 |                                                 |
| \\      /  F ield         | OpenFOAM: The Open Source CFD Toolbox           |
|  \\    /   O peration     | Version:  2406                                  |
|   \\  /    A nd           | Website:  www.openfoam.com                      |
|    \\/     M anipulation  |                                                 |
\*---------------------------------------------------------------------------*/
FoamFile
{
    version     2.0;
    format      ascii;
    arch        "LSB;label=32;scalar=64";
    class       surfaceScalarField;
    location    "1881";
    object      phi;
}
// * * * * * * * * * * * * * * * * * * * * * * * * * * * * * * * * * * * * * //

dimensions      [0 3 -1 0 0 0 0];

oriented        oriented;

internalField   nonuniform List<scalar> 
14962
(
-3.383839e-13
3.383839e-13
-1.1789705e-12
8.405866e-13
-2.2403073e-12
1.0613367e-12
-3.3803925e-12
1.1400852e-12
-4.5719509e-12
1.1915584e-12
-5.8122258e-12
1.2402749e-12
-7.1029439e-12
1.2907181e-12
-8.4479197e-12
1.3449758e-12
-9.8525668e-12
1.4046472e-12
-1.132183e-11
1.4692629e-12
-1.2856631e-11
1.5348017e-12
-1.4448961e-11
1.5923296e-12
-1.6076107e-11
1.6271465e-12
-1.7695721e-11
1.6196135e-12
-1.9243584e-11
1.5478628e-12
-2.063601e-11
1.3924258e-12
-2.1777183e-11
1.1411736e-12
-2.2570031e-11
7.9284793e-13
-2.2925442e-11
3.5541077e-13
-2.2772166e-11
-1.5327591e-13
-2.2074639e-11
-6.9752662e-13
-2.0834418e-11
-1.2402212e-12
-1.9084068e-11
-1.7503506e-12
-1.6882158e-11
-2.20191e-12
-1.4307311e-11
-2.5748467e-12
-1.145139e-11
-2.8559208e-12
-8.4110591e-12
-3.0403309e-12
-5.2757165e-12
-3.1353426e-12
-2.1262512e-12
-3.1494653e-12
9.6192787e-13
-3.0881791e-12
3.9269521e-12
-2.9650242e-12
6.7221595e-12
-2.7952075e-12
9.3152581e-12
-2.5930985e-12
1.1685415e-11
-2.3701572e-12
1.3821518e-11
-2.1361022e-12
1.5720608e-11
-1.8990902e-12
1.7386194e-11
-1.6655864e-12
1.8826691e-11
-1.4404967e-12
2.0054052e-11
-1.2273609e-12
2.1082611e-11
-1.0285588e-12
2.1928127e-11
-8.4551605e-13
2.2607023e-11
-6.7889601e-13
2.3135794e-11
-5.2877092e-13
2.3530563e-11
-3.9476934e-13
2.3806763e-11
-2.7620003e-13
2.3978915e-11
-1.7215208e-13
2.4060489e-11
-8.1574518e-14
2.4063807e-11
-3.3175778e-15
2.4000155e-11
6.3651781e-14
2.3879841e-11
1.2031386e-13
2.3711982e-11
1.6785903e-13
2.3504558e-11
2.074242e-13
2.3264602e-11
2.3995621e-13
2.2998297e-11
2.6630526e-13
2.2711044e-11
2.8725239e-13
2.2407536e-11
3.0350835e-13
2.2091824e-11
3.1571168e-13
2.1767392e-11
3.244319e-13
2.1437218e-11
3.3017475e-13
2.110383e-11
3.3338734e-13
2.0769367e-11
3.3446307e-13
2.0435621e-11
3.3374673e-13
2.0104081e-11
3.3153939e-13
1.9775978e-11
3.2810301e-13
1.9452313e-11
3.236648e-13
1.9133892e-11
3.1842112e-13
1.8821351e-11
3.1254111e-13
1.8515181e-11
3.0616995e-13
1.8215749e-11
2.994318e-13
1.7923317e-11
2.9243243e-13
1.7638055e-11
2.8526151e-13
1.7360061e-11
2.7799473e-13
1.7089365e-11
2.706956e-13
1.6825948e-11
2.6341708e-13
1.6569745e-11
2.5620302e-13
1.6320656e-11
2.4908937e-13
1.607855e-11
2.4210533e-13
1.5843276e-11
2.3527425e-13
1.5614662e-11
2.2861452e-13
1.5392521e-11
2.2214027e-13
1.5176659e-11
2.1586202e-13
1.4966872e-11
2.097872e-13
1.4762951e-11
2.0392069e-13
1.4564686e-11
1.9826515e-13
1.4371865e-11
1.9282145e-13
1.4184276e-11
1.8758894e-13
1.400171e-11
1.8256573e-13
1.3823961e-11
1.777489e-13
1.3650826e-11
1.731347e-13
1.3482108e-11
1.6871873e-13
1.3317612e-11
1.6449608e-13
1.315715e-11
1.6046141e-13
1.3000541e-11
1.5660913e-13
1.2847608e-11
1.5293341e-13
1.2698179e-11
1.494283e-13
1.2552092e-11
1.4608775e-13
1.2409186e-11
1.4290571e-13
1.226931e-11
1.3987615e-13
1.2132317e-11
1.3699308e-13
1.1998066e-11
1.3425058e-13
1.1866423e-11
1.3164286e-13
1.1737259e-11
1.2916422e-13
1.161045e-11
1.2680914e-13
1.1485878e-11
1.245722e-13
1.136343e-11
1.2244815e-13
1.1242998e-11
1.2043191e-13
1.1124479e-11
1.1851856e-13
1.1007776e-11
1.1670332e-13
1.0892794e-11
1.1498161e-13
1.0779445e-11
1.1334898e-13
1.0667644e-11
1.1180117e-13
1.055731e-11
1.1033406e-13
1.0448366e-11
1.089437e-13
1.034074e-11
1.0762628e-13
1.0234362e-11
1.0637814e-13
1.0129166e-11
1.0519576e-13
1.0025091e-11
1.0407577e-13
9.9220757e-12
1.0301492e-13
9.8200656e-12
1.020101e-13
9.7190073e-12
1.0105831e-13
9.6188507e-12
1.0015668e-13
9.5195482e-12
9.9302452e-14
9.4210553e-12
9.8492964e-14
9.3233296e-12
9.7725669e-14
9.2263316e-12
9.6998116e-14
9.1300236e-12
9.6307945e-14
9.0343708e-12
9.5652888e-14
8.9393401e-12
9.5030762e-14
8.8449006e-12
9.4439463e-14
8.7510237e-12
9.3876965e-14
8.6576824e-12
9.3341316e-14
8.5648518e-12
9.2830629e-14
8.4725087e-12
9.2343089e-14
8.3806318e-12
9.1876936e-14
8.2892014e-12
9.1430477e-14
8.1981993e-12
9.1002067e-14
8.1076092e-12
9.0590121e-14
8.0174162e-12
9.01931e-14
7.9276067e-12
8.9809516e-14
7.8381688e-12
8.9437923e-14
7.7490919e-12
8.9076924e-14
7.6603668e-12
8.8725156e-14
7.5719855e-12
8.8381304e-14
7.4839415e-12
8.8044085e-14
7.3962293e-12
8.7712254e-14
7.3088447e-12
8.7384603e-14
7.2217848e-12
8.7059956e-14
7.1350477e-12
8.6737171e-14
7.0486326e-12
8.6415138e-14
6.9625399e-12
8.6092776e-14
6.8767709e-12
8.576904e-14
6.791328e-12
8.544291e-14
6.7062147e-12
8.5113398e-14
6.6214351e-12
8.4779545e-14
6.5369948e-12
8.4440423e-14
6.4528997e-12
8.409513e-14
6.3691569e-12
8.3742795e-14
6.2857743e-12
8.3382577e-14
6.2027607e-12
8.3013663e-14
6.1201255e-12
8.263527e-14
6.0378788e-12
8.2246645e-14
5.9560318e-12
8.1847067e-14
5.874596e-12
8.1435843e-14
5.7935837e-12
8.1012314e-14
5.7130078e-12
8.0575854e-14
5.632882e-12
8.0125866e-14
5.5532202e-12
7.966179e-14
5.4740371e-12
7.9183098e-14
5.3953479e-12
7.8689299e-14
5.3171679e-12
7.8179936e-14
5.2395134e-12
7.7654589e-14
5.1624005e-12
7.7112875e-14
5.0858461e-12
7.6554451e-14
5.0098671e-12
7.5979012e-14
4.9344808e-12
7.5386295e-14
4.8597048e-12
7.477608e-14
4.7855566e-12
7.4148192e-14
4.7120541e-12
7.3502505e-14
4.6392152e-12
7.2838948e-14
4.5670577e-12
7.2157507e-14
4.4955995e-12
7.1458245e-14
4.4248582e-12
7.0741305e-14
4.3548513e-12
7.0006949e-14
4.2855957e-12
6.9255583e-14
4.2171079e-12
6.848783e-14
4.1494033e-12
6.7704616e-14
4.082496e-12
6.690734e-14
4.0163979e-12
6.6098145e-14
3.9511175e-12
6.5280411e-14
3.8866578e-12
6.4459684e-14
3.8230124e-12
6.3645398e-14
3.7601576e-12
6.2854771e-14
3.6980379e-12
6.2119713e-14
3.6365303e-12
6.1507549e-14
3.5753841e-12
6.1146179e-14
3.5139937e-12
6.1390304e-14
3.4511851e-12
6.2808538e-14
3.3836746e-12
6.7510409e-14
3.3075032e-12
7.6171342e-14
1.2318925e-13
-1.4333255e-12
1.7717095e-12
-3.964302e-12
3.3715631e-12
-6.8170185e-12
3.9140532e-12
-9.7253735e-12
4.0484401e-12
-1.2621736e-11
4.0879205e-12
-1.5487735e-11
4.1062742e-12
-1.8315398e-11
4.1183814e-12
-2.1098136e-11
4.127714e-12
-2.3825555e-11
4.1320655e-12
-2.6477188e-11
4.1208966e-12
-2.9016339e-11
4.0739521e-12
-3.1384945e-11
3.9609357e-12
-3.3500597e-11
3.7427985e-12
-3.5258519e-11
3.3775356e-12
-3.6539219e-11
2.8285632e-12
-3.7222063e-11
2.0752694e-12
-3.7199464e-11
1.118575e-12
-3.6391174e-11
-1.54426e-14
-3.4768266e-11
-1.2674973e-12
-3.2351172e-11
-2.5703695e-12
-2.9185404e-11
-3.8632944e-12
-2.5343989e-11
-5.0816369e-12
-2.0925053e-11
-6.1692864e-12
-1.6041217e-11
-7.085746e-12
-1.0811538e-11
-7.8045258e-12
-5.3562292e-12
-8.3112296e-12
2.1442936e-13
-8.6109894e-12
5.792568e-12
-8.7134813e-12
1.1281704e-11
-8.6386015e-12
1.6609831e-11
-8.4163054e-12
2.1718407e-11
-8.073601e-12
2.6561169e-11
-7.6379692e-12
3.1103935e-11
-7.1358648e-12
3.5324158e-11
-6.5903802e-12
3.9208967e-11
-6.0209107e-12
4.275338e-11
-5.4435033e-12
4.5958786e-11
-4.8709928e-12
4.8831599e-11
-4.313309e-12
5.1382102e-11
-3.7778642e-12
5.3623486e-11
-3.2699434e-12
5.5571044e-11
-2.7930737e-12
5.724151e-11
-2.3493619e-12
5.8652529e-11
-1.9397894e-12
5.9822221e-11
-1.5644622e-12
6.0768841e-11
-1.2228196e-12
6.1510494e-11
-9.1380472e-13
6.206492e-11
-6.3600108e-13
6.2449349e-11
-3.8774625e-13
6.2680213e-11
-1.6721251e-13
6.2772916e-11
2.7610541e-14
6.2742294e-11
1.984818e-13
6.2602598e-11
3.4711997e-13
6.2367121e-11
4.7543295e-13
6.2048116e-11
5.8531061e-13
6.1656825e-11
6.7854334e-13
6.1203515e-11
7.5681831e-13
6.0697514e-11
8.2171279e-13
6.0147255e-11
8.7469089e-13
5.9560326e-11
9.171037e-13
5.8943522e-11
9.5019084e-13
5.8302901e-11
9.750839e-13
5.7643837e-11
9.9281113e-13
5.6971073e-11
1.004303e-12
5.6288779e-11
1.0103979e-12
5.5600595e-11
1.0118487e-12
5.4909687e-11
1.0093285e-12
5.4218791e-11
1.0034374e-12
5.3530253e-11
9.9470841e-13
5.2846071e-11
9.836131e-13
5.2167936e-11
9.7056758e-13
5.149726e-11
9.5593762e-13
5.0835211e-11
9.4004363e-13
5.0182741e-11
9.2316528e-13
4.9540613e-11
9.0554577e-13
4.890942e-11
8.8739579e-13
4.8289612e-11
8.6889701e-13
4.7681512e-11
8.5020545e-13
4.7085332e-11
8.3145434e-13
4.650119e-11
8.1275686e-13
4.5929121e-11
7.9420849e-13
4.5369094e-11
7.758892e-13
4.4821016e-11
7.5786535e-13
4.4284745e-11
7.401914e-13
4.3760099e-11
7.2291148e-13
4.324686e-11
7.060607e-13
4.2744782e-11
6.8966636e-13
4.2253599e-11
6.7374903e-13
4.1773025e-11
6.5832347e-13
4.130276e-11
6.4339946e-13
4.0842496e-11
6.2898251e-13
4.0391918e-11
6.1507451e-13
3.9950705e-11
6.0167429e-13
3.9518536e-11
5.8877808e-13
3.9095089e-11
5.7637998e-13
3.8680045e-11
5.6447227e-13
3.8273087e-11
5.5304578e-13
3.7873903e-11
5.4209015e-13
3.7482185e-11
5.3159406e-13
3.7097633e-11
5.2154547e-13
3.6719951e-11
5.1193175e-13
3.6348854e-11
5.0273988e-13
3.5984062e-11
4.9395656e-13
3.5625303e-11
4.8556832e-13
3.5272314e-11
4.7756162e-13
3.4924839e-11
4.6992294e-13
3.4582632e-11
4.6263882e-13
3.4245455e-11
4.5569594e-13
3.3913077e-11
4.4908115e-13
3.3585277e-11
4.4278153e-13
3.3261841e-11
4.3678439e-13
3.2942565e-11
4.3107732e-13
3.2627251e-11
4.2564818e-13
3.231571e-11
4.2048516e-13
3.2007759e-11
4.1557673e-13
3.1703226e-11
4.1091168e-13
3.1401942e-11
4.0647914e-13
3.110375e-11
4.0226854e-13
3.0808495e-11
3.9826963e-13
3.0516033e-11
3.9447247e-13
3.0226224e-11
3.9086744e-13
2.9938935e-11
3.8744522e-13
2.9654041e-11
3.8419678e-13
2.937142e-11
3.8111338e-13
2.9090959e-11
3.7818655e-13
2.881255e-11
3.7540812e-13
2.8536087e-11
3.7277015e-13
2.8261475e-11
3.7026496e-13
2.7988621e-11
3.6788512e-13
2.7717437e-11
3.6562343e-13
2.7447841e-11
3.634729e-13
2.7179756e-11
3.6142677e-13
2.6913108e-11
3.5947848e-13
2.6647829e-11
3.5762165e-13
2.6383856e-11
3.5585012e-13
2.6121129e-11
3.5415786e-13
2.5859592e-11
3.5253906e-13
2.5599194e-11
3.5098804e-13
2.5339888e-11
3.4949927e-13
2.508163e-11
3.4806739e-13
2.4824381e-11
3.4668716e-13
2.4568104e-11
3.4535349e-13
2.4312768e-11
3.4406141e-13
2.4058344e-11
3.4280606e-13
2.3804805e-11
3.4158272e-13
2.3552131e-11
3.4038677e-13
2.3300301e-11
3.392137e-13
2.3049302e-11
3.380591e-13
2.2799121e-11
3.3691868e-13
2.2549748e-11
3.3578823e-13
2.2301177e-11
3.3466364e-13
2.2053405e-11
3.3354091e-13
2.1806432e-11
3.3241611e-13
2.156026e-11
3.3128543e-13
2.1314895e-11
3.3014512e-13
2.1070344e-11
3.2899156e-13
2.0826618e-11
3.2782118e-13
2.058373e-11
3.2663053e-13
2.0341696e-11
3.2541624e-13
2.0100535e-11
3.2417504e-13
1.9860266e-11
3.2290376e-13
1.9620914e-11
3.215993e-13
1.9382502e-11
3.2025868e-13
1.9145059e-11
3.1887903e-13
1.8908614e-11
3.1745756e-13
1.8673198e-11
3.1599159e-13
1.8438846e-11
3.1447856e-13
1.8205591e-11
3.1291602e-13
1.7973473e-11
3.1130163e-13
1.7742529e-11
3.0963316e-13
1.75128e-11
3.0790851e-13
1.7284329e-11
3.0612571e-13
1.7057159e-11
3.0428292e-13
1.6831335e-11
3.0237843e-13
1.6606904e-11
3.0041066e-13
1.6383912e-11
2.983782e-13
1.6162408e-11
2.9627976e-13
1.5942442e-11
2.9411425e-13
1.5724064e-11
2.9188072e-13
1.5507325e-11
2.8957843e-13
1.5292275e-11
2.8720685e-13
1.5078968e-11
2.847657e-13
1.4867454e-11
2.8225501e-13
1.4657786e-11
2.7967517e-13
1.4450015e-11
2.7702709e-13
1.424419e-11
2.743124e-13
1.4040361e-11
2.7153368e-13
1.3838573e-11
2.6869505e-13
1.3638869e-11
2.6580289e-13
1.3441282e-11
2.628673e-13
1.3245837e-11
2.5990451e-13
1.3052541e-11
2.5694119e-13
1.2861373e-11
2.5402333e-13
1.2672262e-11
2.5123013e-13
1.2485055e-11
2.4871467e-13
1.2299465e-11
2.4673641e-13
1.211491e-11
2.4594519e-13
1.1930584e-11
2.4713434e-13
1.1743912e-11
2.541818e-13
1.1554316e-11
2.6576716e-13
3.3386294e-13
-2.6092401e-12
4.3809495e-12
-6.5915033e-12
7.3538263e-12
-1.065271e-11
7.9752602e-12
-1.44827e-11
7.8784303e-12
-1.8023146e-11
7.6283658e-12
-2.1260002e-11
7.3431302e-12
-2.418492e-11
7.0432993e-12
-2.6785929e-11
6.7287231e-12
-2.9041531e-11
6.3876674e-12
-3.0915892e-11
5.9952581e-12
-3.2357409e-11
5.5154691e-12
-3.3300093e-11
4.9036194e-12
-3.3666816e-11
4.1095217e-12
-3.337723e-11
3.0879492e-12
-3.2357756e-11
1.8090895e-12
-3.0556319e-11
2.7383278e-13
-2.7965726e-11
-1.4720186e-12
-2.4628691e-11
-3.3524776e-12
-2.0599711e-11
-5.2964766e-12
-1.5943771e-11
-7.2263095e-12
-1.0750686e-11
-9.0563798e-12
-5.1246936e-12
-1.0707629e-11
8.2457705e-13
-1.2118557e-11
6.9843011e-12
-1.324547e-11
1.3243415e-11
-1.4063639e-11
1.9505031e-11
-1.4572846e-11
2.5682982e-11
-1.478894e-11
3.1707848e-11
-1.4738348e-11
3.7524459e-11
-1.4455213e-11
4.3087737e-11
-1.3979583e-11
4.8365808e-11
-1.3351671e-11
5.3337224e-11
-1.2609385e-11
5.7988753e-11
-1.1787394e-11
6.2314083e-11
-1.091571e-11
6.6312533e-11
-1.001936e-11
6.9987725e-11
-9.1186958e-12
7.334652e-11
-8.2297872e-12
7.6398141e-11
-7.3649306e-12
7.9153489e-11
-6.5332124e-12
8.1624608e-11
-5.7410617e-12
8.3824286e-11
-4.9927524e-12
8.5765767e-11
-4.2908424e-12
8.7462524e-11
-3.6365463e-12
8.8928106e-11
-3.0300439e-12
9.0176016e-11
-2.4707301e-12
9.1219628e-11
-1.9574162e-12
9.2072113e-11
-1.4884869e-12
9.2746399e-11
-1.0620315e-12
9.3255127e-11
-6.7594062e-13
9.3610715e-11
-3.2797794e-13
9.3824903e-11
-1.5706404e-14
9.3908812e-11
2.6321157e-13
9.3873353e-11
5.1089216e-13
9.3729169e-11
7.2949461e-13
9.3486469e-11
9.2124296e-13
9.3154988e-11
1.0882998e-12
9.2743959e-11
1.2327411e-12
9.22621e-11
1.3565501e-12
9.1717594e-11
1.4616101e-12
9.1118086e-11
1.5496981e-12
9.0470688e-11
1.6224819e-12
8.978198e-11
1.681519e-12
8.9058026e-11
1.7282573e-12
8.8304387e-11
1.764037e-12
8.7526142e-11
1.7900937e-12
8.6727908e-11
1.807562e-12
8.5913866e-11
1.81748e-12
8.508778e-11
1.8207941e-12
8.4253029e-11
1.818364e-12
8.3412628e-11
1.8109684e-12
8.2569256e-11
1.7993098e-12
8.1725279e-11
1.7840205e-12
8.0882777e-11
1.7656673e-12
8.0043566e-11
1.744757e-12
7.9209221e-11
1.721741e-12
7.8381097e-11
1.6970205e-12
7.7560352e-11
1.6709505e-12
7.6747962e-11
1.6438442e-12
7.5944742e-11
1.6159768e-12
7.5151361e-11
1.5875895e-12
7.4368358e-11
1.5588925e-12
7.3596155e-11
1.5300684e-12
7.2835072e-11
1.5012747e-12
7.2085336e-11
1.472647e-12
7.1347096e-11
1.4443011e-12
7.0620427e-11
1.4163349e-12
6.9905346e-11
1.3888308e-12
6.9201812e-11
1.3618575e-12
6.850974e-11
1.3354712e-12
6.7829005e-11
1.3097176e-12
6.7159447e-11
1.2846326e-12
6.6500877e-11
1.2602441e-12
6.5853082e-11
1.2365727e-12
6.521583e-11
1.2136324e-12
6.458887e-11
1.191432e-12
6.397194e-11
1.1699755e-12
6.3364768e-11
1.1492627e-12
6.2767072e-11
1.1292901e-12
6.2178566e-11
1.110051e-12
6.1598962e-11
1.0915363e-12
6.1027967e-11
1.0737347e-12
6.046529e-11
1.0566333e-12
5.9910641e-11
1.0402175e-12
5.9363731e-11
1.0244716e-12
5.8824275e-11
1.009379e-12
5.8291991e-11
9.9492236e-13
5.7766604e-11
9.8108371e-13
5.724784e-11
9.678447e-13
5.6735435e-11
9.5518673e-13
5.6229128e-11
9.4309103e-13
5.5728667e-11
9.3153876e-13
5.5233804e-11
9.2051115e-13
5.47443e-11
9.0998948e-13
5.4259921e-11
8.9995523e-13
5.3780443e-11
8.9039007e-13
5.3305646e-11
8.8127592e-13
5.283532e-11
8.7259499e-13
5.2369259e-11
8.643298e-13
5.1907269e-11
8.564632e-13
5.1449158e-11
8.4897838e-13
5.0994744e-11
8.418589e-13
5.0543852e-11
8.3508867e-13
5.0096314e-11
8.2865196e-13
4.9651967e-11
8.2253343e-13
4.9210657e-11
8.167181e-13
4.8772236e-11
8.1119133e-13
4.8336562e-11
8.0593886e-13
4.79035e-11
8.0094676e-13
4.7472922e-11
7.9620146e-13
4.7044706e-11
7.9168971e-13
4.6618734e-11
7.8739858e-13
4.6194897e-11
7.8331547e-13
4.577309e-11
7.7942805e-13
4.5353216e-11
7.7572431e-13
4.4935182e-11
7.7219251e-13
4.45189e-11
7.6882116e-13
4.4104289e-11
7.6559906e-13
4.3691273e-11
7.6251523e-13
4.3279781e-11
7.5955894e-13
4.2869749e-11
7.5671968e-13
4.2461115e-11
7.5398718e-13
4.2053825e-11
7.5135134e-13
4.1647829e-11
7.4880229e-13
4.1243081e-11
7.4633035e-13
4.0839542e-11
7.4392601e-13
4.0437176e-11
7.4157996e-13
4.0035952e-11
7.3928304e-13
3.9635845e-11
7.3702628e-13
3.9236832e-11
7.3480087e-13
3.8838898e-11
7.3259816e-13
3.8442029e-11
7.3040964e-13
3.8046218e-11
7.2822699e-13
3.7651461e-11
7.2604202e-13
3.725776e-11
7.238467e-13
3.6865118e-11
7.2163316e-13
3.6473546e-11
7.1939369e-13
3.6083056e-11
7.1712071e-13
3.5693665e-11
7.1480684e-13
3.5305395e-11
7.1244483e-13
3.4918272e-11
7.1002761e-13
3.4532323e-11
7.0754828e-13
3.4147581e-11
7.0500009e-13
3.3764084e-11
7.0237652e-13
3.338187e-11
6.9967118e-13
3.3000984e-11
6.9687792e-13
3.2621472e-11
6.9399076e-13
3.2243384e-11
6.9100394e-13
3.1866774e-11
6.879119e-13
3.1491697e-11
6.8470932e-13
3.1118215e-11
6.8139111e-13
3.0746388e-11
6.7795241e-13
3.0376283e-11
6.7438862e-13
3.0007966e-11
6.7069541e-13
2.9641508e-11
6.6686872e-13
2.9276981e-11
6.6290476e-13
2.8914461e-11
6.5880006e-13
2.8554024e-11
6.5455148e-13
2.8195748e-11
6.5015622e-13
2.7839715e-11
6.4561186e-13
2.7486005e-11
6.4091639e-13
2.7134703e-11
6.3606833e-13
2.6785891e-11
6.3106675e-13
2.6439655e-11
6.2591148e-13
2.6096078e-11
6.2060328e-13
2.5755247e-11
6.1514421e-13
2.5417242e-11
6.0953813e-13
2.5082146e-11
6.0379149e-13
2.4750034e-11
5.9791472e-13
2.4420977e-11
5.9192432e-13
2.4095035e-11
5.8584657e-13
2.3772253e-11
5.7972345e-13
2.3452651e-11
5.7362461e-13
2.3136219e-11
5.6766245e-13
2.282289e-11
5.6204337e-13
2.251256e-11
5.5706693e-13
2.2205005e-11
5.5349931e-13
2.190037e-11
5.5176974e-13
2.1598016e-11
5.5653521e-13
2.1302999e-11
5.6078449e-13
6.29091e-13
-3.6858947e-12
8.0668442e-12
-8.5049481e-12
1.217288e-11
-1.2777081e-11
1.2247393e-11
-1.6301791e-11
1.140314e-11
-1.9125249e-11
1.0451824e-11
-2.1290865e-11
9.5087457e-12
-2.2827426e-11
8.5798602e-12
-2.375096e-11
7.652257e-12
-2.4062784e-11
6.699492e-12
-2.3749172e-11
5.6816454e-12
-2.2785728e-11
4.5520254e-12
-2.1143923e-11
3.2618146e-12
-1.8798712e-11
1.7643108e-12
-1.5737873e-11
2.7109692e-14
-1.197747e-11
-1.951313e-12
-7.5714137e-12
-4.1322236e-12
-2.5894696e-12
-6.4539628e-12
2.8964803e-12
-8.8384275e-12
8.7969865e-12
-1.1196983e-11
1.5006796e-11
-1.3436119e-11
2.1417824e-11
-1.5467408e-11
2.7925926e-11
-1.7215731e-11
3.4433887e-11
-1.8626518e-11
4.0856469e-11
-1.9668052e-11
4.7123979e-11
-2.033115e-11
5.3179491e-11
-2.0628358e-11
5.8979508e-11
-2.0588957e-11
6.4493933e-11
-2.0252772e-11
6.9704488e-11
-1.9665767e-11
7.4601487e-11
-1.8876583e-11
7.9182268e-11
-1.7932452e-11
8.3449571e-11
-1.6876688e-11
8.7409775e-11
-1.5747598e-11
9.1071831e-11
-1.4577767e-11
9.4446424e-11
-1.3393953e-11
9.7545234e-11
-1.2217506e-11
1.0038042e-10
-1.1064973e-11
1.0296426e-10
-9.948772e-12
1.0530893e-10
-8.8778772e-12
1.0742632e-10
-7.8584581e-12
1.0932802e-10
-6.8944466e-12
1.1102519e-10
-5.9880182e-12
1.1252864e-10
-5.1399916e-12
1.1384875e-10
-4.3501531e-12
1.1499553e-10
-3.6175156e-12
1.1597864e-10
-2.9405239e-12
1.1680737e-10
-2.317214e-12
1.1749068e-10
-1.7453402e-12
1.1803721e-10
-1.2224717e-12
1.184553e-10
-7.4606718e-13
1.1875313e-10
-3.1354314e-13
1.189386e-10
7.7744302e-14
1.1901901e-10
4.3048051e-13
1.1900135e-10
7.4715499e-13
1.1889239e-10
1.0302085e-12
1.1869867e-10
1.2820157e-12
1.1842655e-10
1.5048641e-12
1.1808215e-10
1.7009515e-12
1.1767137e-10
1.8723817e-12
1.1719991e-10
2.0211594e-12
1.1667321e-10
2.149188e-12
1.1609646e-10
2.2582674e-12
1.1547462e-10
2.3500942e-12
1.148124e-10
2.4262621e-12
1.1411423e-10
2.4882629e-12
1.133843e-10
2.5374886e-12
1.1262655e-10
2.5752346e-12
1.1184464e-10
2.6027021e-12
1.11042e-10
2.6210021e-12
1.1022181e-10
2.6311591e-12
1.09387e-10
2.6341154e-12
1.0854029e-10
2.6307347e-12
1.0768415e-10
2.6218073e-12
1.0682085e-10
2.6080537e-12
1.0595246e-10
2.5901294e-12
1.0508086e-10
2.568629e-12
1.0420772e-10
2.5440905e-12
1.0333456e-10
2.5169992e-12
1.0246275e-10
2.4877918e-12
1.0159348e-10
2.4568602e-12
1.0072781e-10
2.4245548e-12
9.9866693e-11
2.3911883e-12
9.901093e-11
2.3570385e-12
9.8161225e-11
2.3223517e-12
9.7318181e-11
2.2873452e-12
9.6482305e-11
2.2522102e-12
9.5654022e-11
2.2171139e-12
9.4833678e-11
2.1822021e-12
9.4021548e-11
2.1476013e-12
9.3217845e-11
2.1134201e-12
9.2422726e-11
2.0797517e-12
9.1636295e-11
2.046675e-12
9.0858611e-11
2.0142563e-12
9.0089693e-11
1.9825506e-12
8.9329523e-11
1.9516026e-12
8.857805e-11
1.9214485e-12
8.7835196e-11
1.892116e-12
8.710086e-11
1.8636262e-12
8.6374917e-11
1.8359938e-12
8.5657226e-11
1.8092281e-12
8.4947627e-11
1.7833334e-12
8.424595e-11
1.7583102e-12
8.3552012e-11
1.7341551e-12
8.2865623e-11
1.7108615e-12
8.2186581e-11
1.6884202e-12
8.1514684e-11
1.6668196e-12
8.0849722e-11
1.6460462e-12
8.0191482e-11
1.6260847e-12
7.953975e-11
1.6069184e-12
7.8894311e-11
1.5885296e-12
7.8254951e-11
1.5708994e-12
7.7621454e-11
1.5540083e-12
7.6993607e-11
1.5378361e-12
7.63712e-11
1.5223622e-12
7.5754025e-11
1.5075655e-12
7.5141876e-11
1.4934251e-12
7.4534551e-11
1.4799194e-12
7.3931854e-11
1.4670272e-12
7.333359e-11
1.454727e-12
7.2739571e-11
1.4429977e-12
7.2149611e-11
1.4318182e-12
7.1563533e-11
1.4211673e-12
7.098116e-11
1.4110244e-12
7.0402325e-11
1.4013689e-12
6.9826863e-11
1.3921806e-12
6.9254614e-11
1.3834394e-12
6.8685428e-11
1.3751256e-12
6.8119155e-11
1.3672199e-12
6.7555653e-11
1.359703e-12
6.6994787e-11
1.3525562e-12
6.6436424e-11
1.3457608e-12
6.5880441e-11
1.3392987e-12
6.5326717e-11
1.333152e-12
6.4775139e-11
1.327303e-12
6.4225597e-11
1.3217343e-12
6.3677989e-11
1.3164288e-12
6.3132218e-11
1.3113699e-12
6.2588193e-11
1.3065407e-12
6.2045827e-11
1.3019252e-12
6.1505039e-11
1.2975072e-12
6.0965755e-11
1.293271e-12
6.0427906e-11
1.2892008e-12
5.9891427e-11
1.2852815e-12
5.935626e-11
1.2814977e-12
5.8822351e-11
1.2778345e-12
5.8289654e-11
1.2742773e-12
5.7758125e-11
1.2708114e-12
5.7227729e-11
1.2674225e-12
5.6698434e-11
1.2640964e-12
5.6170213e-11
1.2608191e-12
5.5643046e-11
1.2575767e-12
5.5116917e-11
1.2543557e-12
5.4591817e-11
1.2511426e-12
5.4067739e-11
1.2479241e-12
5.3544685e-11
1.2446872e-12
5.302266e-11
1.2414188e-12
5.2501674e-11
1.2381064e-12
5.1981744e-11
1.2347374e-12
5.1462889e-11
1.2312994e-12
5.0945137e-11
1.2277804e-12
5.0428516e-11
1.2241685e-12
4.9913065e-11
1.220452e-12
4.9398822e-11
1.2166195e-12
4.8885833e-11
1.2126598e-12
4.8374149e-11
1.208562e-12
4.7863824e-11
1.2043154e-12
4.7354919e-11
1.1999098e-12
4.6847496e-11
1.195335e-12
4.6341624e-11
1.1905813e-12
4.5837375e-11
1.1856393e-12
4.5334828e-11
1.1805e-12
4.4834062e-11
1.1751547e-12
4.4335162e-11
1.169595e-12
4.3838218e-11
1.1638132e-12
4.3343321e-11
1.1578018e-12
4.2850567e-11
1.1515539e-12
4.2360056e-11
1.1450629e-12
4.1871889e-11
1.1383229e-12
4.1386172e-11
1.1313285e-12
4.0903014e-11
1.1240751e-12
4.0422523e-11
1.1165587e-12
3.9944814e-11
1.1087762e-12
3.947e-11
1.1007257e-12
3.8998197e-11
1.0924064e-12
3.8529521e-11
1.0838197e-12
3.806409e-11
1.0749692e-12
3.760202e-11
1.065862e-12
3.7143424e-11
1.0565104e-12
3.6688414e-11
1.0469342e-12
3.6237096e-11
1.0371649e-12
3.5789568e-11
1.0272515e-12
3.534592e-11
1.0172727e-12
3.4906235e-11
1.007347e-12
3.4470592e-11
9.9768665e-13
3.4039122e-11
9.8853725e-13
3.3611974e-11
9.8064695e-13
3.3189945e-11
9.7379886e-13
3.2773446e-11
9.7303414e-13
3.2368746e-11
9.6548465e-13
1.0224846e-12
-4.6192096e-12
1.2686054e-11
-9.2596388e-12
1.6813309e-11
-1.2245584e-11
1.5233339e-11
-1.3895664e-11
1.305322e-11
-1.4520831e-11
1.1076991e-11
-1.4259947e-11
9.247862e-12
-1.3199423e-11
7.5193358e-12
-1.1405217e-11
5.8580514e-12
-8.9175913e-12
4.2118659e-12
-5.7574152e-12
2.5214692e-12
-1.9383932e-12
7.3300341e-13
2.5223141e-12
-1.1988928e-12
7.591551e-12
-3.3049261e-12
1.3207836e-11
-5.5891754e-12
1.9283015e-11
-8.0264923e-12
2.5719027e-11
-1.0568235e-11
3.2408771e-11
-1.3143707e-11
3.9240374e-11
-1.5670031e-11
4.610282e-11
-1.8059429e-11
5.2893129e-11
-2.0226428e-11
5.9520983e-11
-2.2095261e-11
6.5912723e-11
-2.3607472e-11
7.2012924e-11
-2.4726719e-11
7.7784497e-11
-2.5439625e-11
8.3207483e-11
-2.5754135e-11
8.8275625e-11
-2.56965e-11
9.2993062e-11
-2.5306394e-11
9.7371677e-11
-2.4631387e-11
1.0142833e-10
-2.3722424e-11
1.051821e-10
-2.2630347e-11
1.0865259e-10
-2.1402949e-11
1.1185896e-10
-2.0083055e-11
1.1481904e-10
-1.8707674e-11
1.1754903e-10
-1.7307756e-11
1.2006345e-10
-1.5908378e-11
1.2237523e-10
-1.4529286e-11
1.2449585e-10
-1.318559e-11
1.2643557e-10
-1.1888491e-11
1.2820366e-10
-1.0645967e-11
1.2980859e-10
-9.463395e-12
1.3125824e-10
-8.3440932e-12
1.3255999e-10
-7.2897643e-12
1.3372086e-10
-6.3008638e-12
1.347476e-10
-5.3768937e-12
1.3564672e-10
-4.516636e-12
1.3642453e-10
-3.7183373e-12
1.3708717e-10
-2.9798537e-12
1.376406e-10
-2.2987653e-12
1.3809059e-10
-1.6724669e-12
1.3844276e-10
-1.0982366e-12
1.3870252e-10
-5.7329821e-13
1.3887512e-10
-9.485568e-14
1.389657e-10
3.398988e-13
1.389791e-10
7.3374858e-13
1.3891996e-10
1.0893505e-12
1.387927e-10
1.40928e-12
1.3860154e-10
1.6960174e-12
1.3835055e-10
1.9519435e-12
1.380436e-10
2.1793333e-12
1.3768441e-10
2.3803522e-12
1.3727654e-10
2.5570549e-12
1.3682342e-10
2.7113853e-12
1.3632834e-10
2.8451772e-12
1.3579445e-10
2.9601566e-12
1.3522477e-10
3.0579438e-12
1.346222e-10
3.1400568e-12
1.3398952e-10
3.2079147e-12
1.3332938e-10
3.2628415e-12
1.3264431e-10
3.3060699e-12
1.3193672e-10
3.3387454e-12
1.3120891e-10
3.3619304e-12
1.3046303e-10
3.3766085e-12
1.2970115e-10
3.3836884e-12
1.289252e-10
3.3840079e-12
1.2813699e-10
3.3783383e-12
1.2733823e-10
3.367388e-12
1.2653052e-10
3.3518065e-12
1.2571533e-10
3.332188e-12
1.2489404e-10
3.309075e-12
1.2406794e-10
3.282962e-12
1.232382e-10
3.2542984e-12
1.2240589e-10
3.223492e-12
1.2157202e-10
3.1909121e-12
1.2073748e-10
3.1568919e-12
1.1990309e-10
3.1217316e-12
1.190696e-10
3.0857012e-12
1.1823767e-10
3.0490422e-12
1.1740791e-10
3.0119704e-12
1.1658083e-10
2.9746782e-12
1.1575691e-10
2.9373359e-12
1.1493657e-10
2.9000944e-12
1.1412016e-10
2.8630862e-12
1.1330799e-10
2.8264274e-12
1.1250032e-10
2.7902191e-12
1.1169737e-10
2.754549e-12
1.1089933e-10
2.7194922e-12
1.1010633e-10
2.6851129e-12
1.0931849e-10
2.6514648e-12
1.085359e-10
2.6185931e-12
1.0775859e-10
2.5865344e-12
1.069866e-10
2.5553181e-12
1.0621995e-10
2.5249671e-12
1.054586e-10
2.4954983e-12
1.0470254e-10
2.4669235e-12
1.0395171e-10
2.4392498e-12
1.0320605e-10
2.41248e-12
1.0246548e-10
2.3866134e-12
1.0172992e-10
2.3616461e-12
1.0099927e-10
2.3375713e-12
1.0027342e-10
2.3143798e-12
9.955226e-11
2.29206e-12
9.883567e-11
2.2705987e-12
9.8123525e-11
2.2499808e-12
9.7415697e-11
2.2301901e-12
9.6712054e-11
2.2112089e-12
9.601246e-11
2.1930188e-12
9.5316779e-11
2.1756002e-12
9.4624873e-11
2.1589332e-12
9.3936603e-11
2.1429969e-12
9.3251831e-11
2.1277703e-12
9.2570417e-11
2.1132317e-12
9.1892225e-11
2.0993595e-12
9.1217118e-11
2.0861316e-12
9.0544961e-11
2.0735259e-12
8.9875621e-11
2.06152e-12
8.9208969e-11
2.0500919e-12
8.8544875e-11
2.0392191e-12
8.7883216e-11
2.0288795e-12
8.7223868e-11
2.0190509e-12
8.6566713e-11
2.0097113e-12
8.5911635e-11
2.0008387e-12
8.5258522e-11
1.9924113e-12
8.4607267e-11
1.9844074e-12
8.3957765e-11
1.9768054e-12
8.3309915e-11
1.9695839e-12
8.2663622e-11
1.9627217e-12
8.2018794e-11
1.9561977e-12
8.1375344e-11
1.949991e-12
8.0733189e-11
1.9440807e-12
8.009225e-11
1.9384463e-12
7.9452453e-11
1.9330672e-12
7.8813731e-11
1.9279232e-12
7.8176019e-11
1.922994e-12
7.7539257e-11
1.9182596e-12
7.6903391e-11
1.9137e-12
7.6268373e-11
1.9092955e-12
7.5634158e-11
1.9050264e-12
7.5000708e-11
1.9008732e-12
7.4367988e-11
1.8968166e-12
7.373597e-11
1.8928372e-12
7.310463e-11
1.8889159e-12
7.2473952e-11
1.8850337e-12
7.1843923e-11
1.8811718e-12
7.1214536e-11
1.8773115e-12
7.0585789e-11
1.8734342e-12
6.9957686e-11
1.8695214e-12
6.9330238e-11
1.865555e-12
6.8703459e-11
1.8615167e-12
6.8077369e-11
1.8573889e-12
6.7451996e-11
1.8531536e-12
6.6827371e-11
1.8487935e-12
6.6203532e-11
1.8442913e-12
6.5580521e-11
1.8396298e-12
6.4958389e-11
1.8347925e-12
6.4337188e-11
1.8297628e-12
6.3716979e-11
1.8245244e-12
6.3097827e-11
1.8190616e-12
6.2479803e-11
1.8133587e-12
6.1862984e-11
1.8074007e-12
6.124745e-11
1.8011728e-12
6.063329e-11
1.7946607e-12
6.0020594e-11
1.7878505e-12
5.940946e-11
1.7807288e-12
5.8799991e-11
1.7732827e-12
5.8192293e-11
1.7655e-12
5.7586477e-11
1.757369e-12
5.6982662e-11
1.7488785e-12
5.6380966e-11
1.7400183e-12
5.5781516e-11
1.7307787e-12
5.518444e-11
1.7211509e-12
5.4589872e-11
1.7111273e-12
5.3997947e-11
1.700701e-12
5.3408806e-11
1.6898669e-12
5.2822591e-11
1.6786213e-12
5.2239448e-11
1.6669628e-12
5.1659524e-11
1.6548928e-12
5.1082969e-11
1.6424167e-12
5.0509934e-11
1.6295454e-12
4.9940571e-11
1.6162975e-12
4.9375033e-11
1.6027033e-12
4.8813475e-11
1.5888087e-12
4.8256062e-11
1.5746864e-12
4.7702972e-11
1.5604363e-12
4.7154419e-11
1.54624e-12
4.661072e-11
1.5322361e-12
4.6072282e-11
1.5190847e-12
4.5540139e-11
1.5059419e-12
4.5015108e-11
1.4980649e-12
4.4501806e-11
1.4787869e-12
1.5179604e-12
-5.3316755e-12
1.8017729e-11
-7.8461169e-12
1.932775e-11
-7.094569e-12
1.4481791e-11
-4.7896642e-12
1.0748315e-11
-1.6147906e-12
7.9021172e-12
2.3040318e-12
5.3290396e-12
6.8593333e-12
2.9640342e-12
1.196493e-11
7.5245448e-13
1.7578452e-11
-1.4016556e-12
2.3672783e-11
-3.5728619e-12
3.0202356e-11
-5.7965693e-12
3.709379e-11
-8.0903269e-12
4.4250338e-11
-1.0461474e-11
5.1562671e-11
-1.2901509e-11
5.8916889e-11
-1.538071e-11
6.6199212e-11
-1.7850557e-11
7.330285e-11
-2.0247345e-11
8.0132487e-11
-2.2499668e-11
8.6608731e-11
-2.4535673e-11
9.2672023e-11
-2.6289721e-11
9.8285283e-11
-2.7708521e-11
1.0343376e-10
-2.8755952e-11
1.0812246e-10
-2.9415421e-11
1.1237239e-10
-2.9689546e-11
1.1621611e-10
-2.9597856e-11
1.1969292e-10
-2.9173317e-11
1.2284459e-10
-2.8458064e-11
1.2571219e-10
-2.7498989e-11
1.2833381e-10
-2.6344038e-11
1.3074291e-10
-2.5039445e-11
1.3296767e-10
-2.3627712e-11
1.3503098e-10
-2.2146361e-11
1.3695074e-10
-2.0627439e-11
1.3874054e-10
-1.9097555e-11
1.4041037e-10
-1.7578207e-11
1.4196743e-10
-1.6086341e-11
1.4341682e-10
-1.463498e-11
1.4476219e-10
-1.3233864e-11
1.4600625e-10