/*--------------------------------*- C++ -*----------------------------------*\
| =========                 |                                                 |
| \\      /  F ield         | OpenFOAM: The Open Source CFD Toolbox           |
|  \\    /   O peration     | Version:  2406                                  |
|   \\  /    A nd           | Website:  www.openfoam.com                      |
|    \\/     M anipulation  |                                                 |
\*---------------------------------------------------------------------------*/
FoamFile
{
    version     2.0;
    format      ascii;
    arch        "LSB;label=32;scalar=64";
    class       volScalarField;
    location    "1881";
    object      T;
}
// * * * * * * * * * * * * * * * * * * * * * * * * * * * * * * * * * * * * * //

dimensions      [0 0 0 0 0 0 0];

internalField   nonuniform List<scalar> 
7600
(
0.99999684
0.99999684
0.99999684
0.99999684
0.99999684
0.99999684
0.99999684
0.99999684
0.99999684
0.99999684
0.99999684
0.99999684
0.99999684
0.99999684
0.99999684
0.99999684
0.99999684
0.99999684
0.99999684
0.99999684
0.99999683
0.99999678
0.99999668
0.99999653
0.99999633
0.99999607
0.99999573
0.99999528
0.99999486
0.99999434
0.9999936
0.99999306
0.99999253
0.99999202
0.99999153
0.99999106
0.99999062
0.99999022
0.99998987
0.99998956
0.99998929
0.99998907
0.99998889
0.99998875
0.99998865
0.99998859
0.99998856
0.99998856
0.99998856
0.99998856
0.99998856
0.99998856
0.99998856
0.99998856
0.99998856
0.99998855
0.99998855
0.99998855
0.99998855
0.99998855
0.99998855
0.99998855
0.99998855
0.99998855
0.99998855
0.99998855
0.99998855
0.99998855
0.99998855
0.99998855
0.99998855
0.99998855
0.99998855
0.99998855
0.99998855
0.99998855
0.99998855
0.99998854
0.99998854
0.99998854
0.99998854
0.99998854
0.99998854
0.99998854
0.99998854
0.99998854
0.99998854
0.99998854
0.99998854
0.99998854
0.99998854
0.99998854
0.99998854
0.99998854
0.99998854
0.99998854
0.99998853
0.99998853
0.99998853
0.99998853
0.99998853
0.99998853
0.99998853
0.99998853
0.99998853
0.99998853
0.99998853
0.99998853
0.99998853
0.99998853
0.99998853
0.99998853
0.99998852
0.99998852
0.99998852
0.99998852
0.99998852
0.99998852
0.99998852
0.99998852
0.99998852
0.99998852
0.99998852
0.99998852
0.99998852
0.99998852
0.99998851
0.99998851
0.99998851
0.99998851
0.99998851
0.99998851
0.99998851
0.99998851
0.99998851
0.99998851
0.99998851
0.99998851
0.99998851
0.9999885
0.9999885
0.9999885
0.9999885
0.9999885
0.9999885
0.9999885
0.9999885
0.9999885
0.9999885
0.9999885
0.9999885
0.99998849
0.99998849
0.99998849
0.99998849
0.99998849
0.99998849
0.99998849
0.99998849
0.99998849
0.99998849
0.99998849
0.99998848
0.99998848
0.99998848
0.99998848
0.99998848
0.99998848
0.99998848
0.99998848
0.99998848
0.99998847
0.99998847
0.99998847
0.99998847
0.99998847
0.99998847
0.99998847
0.99998847
0.99998847
0.99998846
0.99998846
0.99998846
0.99998846
0.99998846
0.99998846
0.99998846
0.99998846
0.99998846
0.99998845
0.99998845
0.99998845
0.99998845
0.99998845
0.99998845
0.99998845
0.99998844
0.99998844
0.99998844
0.99998844
0.99999727
0.99999737
0.99999748
0.99999758
0.99999767
0.99999775
0.99999782
0.99999789
0.99999796
0.99999803
0.99999809
0.99999816
0.99999822
0.99999829
0.99999836
0.99999842
0.99999848
0.99999853
0.99999857
0.99999856
0.99999851
0.99999842
0.99999827
0.99999806
0.99999779
0.99999743
0.99999697
0.99999599
0.99999522
0.99999434
0.99999336
0.9999923
0.99999117
0.99999001
0.99998882
0.99998765
0.99998651
0.99998542
0.9999844
0.99998347
0.99998263
0.9999819
0.99998127
0.99998075
0.99998033
0.99998001
0.99997978
0.99997964
0.99997959
0.9999796
0.99997963
0.99997966
0.99997969
0.99997973
0.99997977
0.99997981
0.99997986
0.9999799
0.99997995
0.99998
0.99998005
0.99998009
0.99998014
0.99998019
0.99998024
0.99998028
0.99998033
0.99998038
0.99998042
0.99998047
0.99998051
0.99998055
0.9999806
0.99998064
0.99998068
0.99998072
0.99998076
0.99998079
0.99998083
0.99998087
0.9999809
0.99998094
0.99998097
0.99998101
0.99998104
0.99998107
0.9999811
0.99998113
0.99998116
0.99998119
0.99998122
0.99998125
0.99998128
0.99998131
0.99998133
0.99998136
0.99998139
0.99998141
0.99998144
0.99998146
0.99998149
0.99998151
0.99998154
0.99998156
0.99998159
0.99998161
0.99998163
0.99998166
0.99998168
0.9999817
0.99998173
0.99998175
0.99998177
0.99998179
0.99998181
0.99998184
0.99998186
0.99998188
0.9999819
0.99998192
0.99998194
0.99998197
0.99998199
0.99998201
0.99998203
0.99998205
0.99998207
0.99998209
0.99998212
0.99998214
0.99998216
0.99998218
0.9999822
0.99998222
0.99998224
0.99998227
0.99998229
0.99998231
0.99998233
0.99998235
0.99998237
0.9999824
0.99998242
0.99998244
0.99998246
0.99998248
0.99998251
0.99998253
0.99998255
0.99998257
0.99998259
0.99998262
0.99998264
0.99998266
0.99998269
0.99998271
0.99998273
0.99998275
0.99998278
0.9999828
0.99998282
0.99998285
0.99998287
0.99998289
0.99998292
0.99998294
0.99998296
0.99998299
0.99998301
0.99998303
0.99998306
0.99998308
0.99998311
0.99998313
0.99998315
0.99998318
0.9999832
0.99998323
0.99998325
0.99998327
0.9999833
0.99998332
0.99998335
0.99998337
0.99998339
0.99998342
0.99998344
0.99998346
0.99998349
0.99998351
0.99998353
0.99998356
0.99998358
0.9999836
0.99998363
0.99998365
0.99998367
0.9999837
0.99998373
0.99998378
0.99999754
0.99999772
0.9999979
0.99999805
0.99999818
0.9999983
0.99999841
0.9999985
0.9999986
0.99999869
0.99999878
0.99999886
0.99999895
0.99999903
0.9999991
0.99999917
0.99999922
0.99999925
0.99999925
0.99999923
0.9999992
0.99999913
0.999999
0.99999868
0.99999829
0.99999773
0.99999697
0.99999597
0.9999947
0.99999316
0.99999135
0.99998928
0.99998698
0.9999845
0.99998189
0.9999792
0.99997649
0.99997383
0.99997125
0.99996882
0.99996657
0.99996452
0.99996271
0.99996113
0.99995981
0.99995873
0.9999579
0.99995729
0.9999569
0.99995672
0.99995676
0.99995684
0.99995696
0.9999571
0.99995726
0.99995744
0.99995764
0.99995785
0.99995806
0.99995829
0.99995852
0.99995875
0.99995899
0.99995922
0.99995946
0.9999597
0.99995994
0.99996017
0.9999604
0.99996063
0.99996085
0.99996107
0.99996129
0.99996151
0.99996172
0.99996192
0.99996212
0.99996232
0.99996251
0.9999627
0.99996289
0.99996307
0.99996325
0.99996342
0.99996359
0.99996376
0.99996393
0.99996409
0.99996424
0.9999644
0.99996455
0.9999647
0.99996484
0.99996498
0.99996512
0.99996526
0.9999654
0.99996553
0.99996566
0.99996579
0.99996592
0.99996604
0.99996616
0.99996628
0.9999664
0.99996652
0.99996664
0.99996676
0.99996687
0.99996698
0.99996709
0.99996721
0.99996731
0.99996742
0.99996753
0.99996764
0.99996774
0.99996785
0.99996796
0.99996806
0.99996816
0.99996827
0.99996837
0.99996847
0.99996857
0.99996867
0.99996877
0.99996887
0.99996897
0.99996907
0.99996917
0.99996927
0.99996937
0.99996947
0.99996957
0.99996967
0.99996977
0.99996986
0.99996996
0.99997006
0.99997016
0.99997026
0.99997035
0.99997045
0.99997055
0.99997065
0.99997075
0.99997084
0.99997094
0.99997104
0.99997114
0.99997124
0.99997133
0.99997143
0.99997153
0.99997163
0.99997173
0.99997183
0.99997192
0.99997202
0.99997212
0.99997222
0.99997232
0.99997242
0.99997251
0.99997261
0.99997271
0.99997281
0.99997291
0.999973
0.9999731
0.9999732
0.9999733
0.99997339
0.99997349
0.99997359
0.99997368
0.99997378
0.99997388
0.99997397
0.99997407
0.99997416
0.99997426
0.99997435
0.99997444
0.99997454
0.99997463
0.99997472
0.99997481
0.99997491
0.999975
0.99997509
0.99997518
0.99997527
0.99997535
0.99997544
0.99997553
0.99997563
0.99997573
0.99997585
0.99999773
0.99999796
0.99999817
0.99999834
0.99999848
0.9999986
0.9999987
0.9999988
0.99999888
0.99999895
0.99999902
0.99999908
0.99999913
0.99999917
0.99999919
0.99999922
0.99999924
0.99999928
0.9999993
0.99999931
0.99999928
0.99999919
0.999999
0.99999866
0.99999809
0.99999722
0.99999596
0.99999422
0.99999193
0.99998903
0.9999855
0.99998134
0.99997659
0.99997132
0.99996563
0.99995964
0.99995348
0.99994728
0.99994118
0.99993529
0.99992972
0.99992457
0.99991989
0.99991574
0.99991216
0.99990916
0.99990673
0.99990487
0.99990355
0.99990273
0.99990239
0.99990251
0.99990274
0.99990307
0.99990349
0.99990398
0.99990453
0.99990513
0.99990578
0.99990646
0.99990717
0.9999079
0.99990865
0.99990941
0.99991018
0.99991095
0.99991172
0.99991249
0.99991326
0.99991402
0.99991477
0.99991551
0.99991625
0.99991697
0.99991768
0.99991837
0.99991906
0.99991973
0.99992039
0.99992103
0.99992166
0.99992228
0.99992289
0.99992348
0.99992406
0.99992463
0.99992519
0.99992574
0.99992627
0.99992679
0.99992731
0.99992781
0.9999283
0.99992878
0.99992926
0.99992972
0.99993018
0.99993063
0.99993107
0.9999315
0.99993193
0.99993234
0.99993276
0.99993316
0.99993356
0.99993395
0.99993434
0.99993473
0.9999351
0.99993548
0.99993585
0.99993621
0.99993657
0.99993693
0.99993728
0.99993763
0.99993797
0.99993831
0.99993865
0.99993899
0.99993932
0.99993965
0.99993998
0.99994031
0.99994063
0.99994095
0.99994127
0.99994159
0.99994191
0.99994222
0.99994253
0.99994284
0.99994315
0.99994346
0.99994377
0.99994407
0.99994438
0.99994468
0.99994499
0.99994529
0.99994559
0.99994589
0.99994619
0.99994649
0.99994678
0.99994708
0.99994738
0.99994767
0.99994797
0.99994826
0.99994855
0.99994885
0.99994914
0.99994943
0.99994972
0.99995001
0.9999503
0.99995059
0.99995088
0.99995116
0.99995145
0.99995174
0.99995202
0.99995231
0.99995259
0.99995287
0.99995315
0.99995343
0.99995371
0.99995399
0.99995427
0.99995455
0.99995482
0.9999551
0.99995537
0.99995565
0.99995592
0.99995619
0.99995645
0.99995672
0.99995699
0.99995725
0.99995751
0.99995777
0.99995803
0.99995829
0.99995854
0.9999588
0.99995905
0.99995929
0.99995954
0.99995979
0.99996003
0.99996027
0.99996051
0.99996075
0.99996099
0.99996123
0.99996147
0.99996175
0.99999788
0.99999812
0.99999833
0.9999985
0.99999862
0.99999873
0.99999881
0.99999888
0.99999894
0.99999899
0.99999903
0.99999906
0.99999907
0.99999909
0.99999913
0.99999918
0.99999923
0.99999928
0.99999931
0.99999931
0.99999925
0.99999908
0.99999872
0.99999806
0.99999695
0.99999524
0.9999927
0.99998916
0.99998442
0.99997833
0.9999708
0.99996181
0.99995141
0.99993973
0.99992696
0.99991335
0.99989918
0.99988476
0.9998704
0.99985638
0.99984297
0.99983041
0.99981888
0.99980852
0.99979945
0.99979171
0.99978533
0.99978031
0.9997766
0.99977413
0.99977284
0.99977269
0.99977309
0.99977379
0.99977474
0.99977592
0.9997773
0.99977885
0.99978054
0.99978236
0.99978427
0.99978627
0.99978834
0.99979045
0.99979261
0.99979479
0.99979698
0.99979918
0.99980138
0.99980357
0.99980574
0.9998079
0.99981003
0.99981214
0.99981422
0.99981626
0.99981828
0.99982025
0.9998222
0.9998241
0.99982597
0.9998278
0.9998296
0.99983136
0.99983308
0.99983477
0.99983642
0.99983804
0.99983962
0.99984117
0.99984269
0.99984418
0.99984564
0.99984706
0.99984847
0.99984984
0.99985119
0.99985251
0.9998538
0.99985508
0.99985633
0.99985755
0.99985876
0.99985995
0.99986112
0.99986226
0.9998634
0.99986451
0.99986561
0.99986669
0.99986775
0.9998688
0.99986984
0.99987087
0.99987188
0.99987288
0.99987386
0.99987484
0.9998758
0.99987676
0.99987771
0.99987864
0.99987957
0.99988049
0.9998814
0.9998823
0.99988319
0.99988408
0.99988496
0.99988583
0.9998867
0.99988756
0.99988842
0.99988927
0.99989011
0.99989095
0.99989178
0.99989261
0.99989344
0.99989426
0.99989507
0.99989588
0.99989669
0.99989749
0.99989829
0.99989908
0.99989987
0.99990066
0.99990144
0.99990222
0.999903
0.99990377
0.99990454
0.99990531
0.99990607
0.99990683
0.99990758
0.99990834
0.99990908
0.99990983
0.99991057
0.99991131
0.99991204
0.99991277
0.9999135
0.99991422
0.99991494
0.99991566
0.99991637
0.99991707
0.99991778
0.99991848
0.99991917
0.99991986
0.99992054
0.99992122
0.9999219
0.99992257
0.99992324
0.9999239
0.99992455
0.9999252
0.99992585
0.99992649
0.99992712
0.99992775
0.99992837
0.99992899
0.9999296
0.9999302
0.9999308
0.99993139
0.99993198
0.99993255
0.99993313
0.9999337
0.99993426
0.99993482
0.99993538
0.99993597
0.99999797
0.99999821
0.9999984
0.99999853
0.99999864
0.99999873
0.99999879
0.99999884
0.99999887
0.9999989
0.99999894
0.99999899
0.99999905
0.99999912
0.99999919
0.99999926
0.99999933
0.99999937
0.99999938
0.99999931
0.99999911
0.99999864
0.99999775
0.99999619
0.99999363
0.99998967
0.99998387
0.99997578
0.99996495
0.99995104
0.99993381
0.99991318
0.99988923
0.99986223
0.9998326
0.99980088
0.99976771
0.99973378
0.99969981
0.99966648
0.99963443
0.9996042
0.99957628
0.99955103
0.99952872
0.99950952
0.99949352
0.99948071
0.99947104
0.99946438
0.99946057
0.99945939
0.99946008
0.99946156
0.99946376
0.99946659
0.99946997
0.99947384
0.99947812
0.99948277
0.99948772
0.99949292
0.99949833
0.9995039
0.9995096
0.9995154
0.99952127
0.99952717
0.99953309
0.99953901
0.99954491
0.99955077
0.99955658
0.99956234
0.99956803
0.99957364
0.99957917
0.99958462
0.99958998
0.99959524
0.9996004
0.99960547
0.99961045
0.99961532
0.9996201
0.99962478
0.99962937
0.99963386
0.99963826
0.99964257
0.99964679
0.99965093
0.99965498
0.99965894
0.99966283
0.99966664
0.99967037
0.99967404
0.99967763
0.99968115
0.9996846
0.999688
0.99969133
0.9996946
0.99969781
0.99970097
0.99970408
0.99970713
0.99971014
0.99971309
0.99971601
0.99971887
0.9997217
0.99972448
0.99972723
0.99972994
0.99973261
0.99973524
0.99973785
0.99974042
0.99974296
0.99974546
0.99974795
0.9997504
0.99975282
0.99975522
0.9997576
0.99975995
0.99976228
0.99976458
0.99976686
0.99976913
0.99977137
0.99977359
0.9997758
0.99977798
0.99978015
0.9997823
0.99978443
0.99978655
0.99978865
0.99979073
0.9997928
0.99979485
0.99979689
0.99979892
0.99980093
0.99980293
0.99980491
0.99980688
0.99980884
0.99981078
0.99981271
0.99981462
0.99981653
0.99981842
0.9998203
0.99982216
0.99982401
0.99982585
0.99982768
0.99982949
0.9998313
0.99983308
0.99983486
0.99983662
0.99983837
0.9998401
0.99984182
0.99984353
0.99984522
0.9998469
0.99984857
0.99985022
0.99985186
0.99985348
0.99985509
0.99985668
0.99985826
0.99985982
0.99986137
0.9998629
0.99986441
0.99986591
0.99986739
0.99986886
0.99987031
0.99987174
0.99987315
0.99987455
0.99987593
0.99987729
0.99987864
0.99987997
0.99988128
0.99988258
0.99988386
0.99988513
0.99988638
0.99988765
0.99999802
0.99999821
0.99999838
0.99999846
0.99999852
0.9999986
0.9999987
0.9999988
0.9999989
0.999999
0.99999909
0.99999919
0.99999928
0.99999936
0.99999943
0.99999949
0.99999953
0.99999952
0.99999941
0.9999991
0.99999841
0.99999706
0.99999462
0.99999049
0.9999839
0.99997391
0.9999595
0.99993962
0.99991329
0.99987974
0.99983846
0.9997893
0.99973248
0.99966863
0.99959872
0.99952401
0.99944596
0.99936617
0.99928625
0.99920777
0.99913219
0.9990608
0.99899466
0.99893466
0.99888141
0.99883534
0.99879667
0.99876541
0.99874145
0.99872453
0.9987143
0.99871032
0.99871148
0.9987147
0.99871977
0.99872649
0.99873468
0.99874415
0.99875475
0.99876631
0.9987787
0.99879179
0.99880546
0.9988196
0.99883412
0.99884893
0.99886395
0.99887911
0.99889436
0.99890963
0.99892489
0.99894009
0.99895519
0.99897016
0.99898499
0.99899964
0.99901411
0.99902836
0.9990424
0.99905621
0.99906979
0.99908313
0.99909622
0.99910907
0.99912167
0.99913403
0.99914614
0.99915801
0.99916964
0.99918103
0.9991922
0.99920314
0.99921385
0.99922435
0.99923463
0.99924471
0.99925459
0.99926427
0.99927377
0.99928308
0.99929221
0.99930117
0.99930996
0.99931858
0.99932705
0.99933537
0.99934354
0.99935158
0.99935947
0.99936723
0.99937486
0.99938237
0.99938976
0.99939704
0.9994042
0.99941126
0.99941821
0.99942506
0.99943181
0.99943848
0.99944505
0.99945153
0.99945793
0.99946425
0.99947049
0.99947665
0.99948273
0.99948875
0.9994947
0.99950057
0.99950639
0.99951214
0.99951782
0.99952345
0.99952902
0.99953453
0.99953998
0.99954539
0.99955074
0.99955603
0.99956128
0.99956648
0.99957163
0.99957673
0.99958178
0.99958679
0.99959175
0.99959667
0.99960155
0.99960638
0.99961117
0.99961592
0.99962062
0.99962529
0.99962991
0.99963449
0.99963904
0.99964354
0.999648
0.99965242
0.9996568
0.99966114
0.99966544
0.9996697
0.99967393
0.99967811
0.99968225
0.99968635
0.99969041
0.99969443
0.99969841
0.99970235
0.99970625
0.9997101
0.99971392
0.99971769
0.99972142
0.99972511
0.99972876
0.99973236
0.99973592
0.99973944
0.99974291
0.99974634
0.99974973
0.99975307
0.99975637
0.99975962
0.99976282
0.99976598
0.9997691
0.99977217
0.9997752
0.99977818
0.99978111
0.999784
0.99978685
0.99978966
0.99979242
0.99979518
0.99999861
0.99999871
0.99999885
0.99999897
0.99999909
0.9999992
0.99999929
0.99999937
0.99999945
0.99999952
0.99999958
0.99999964
0.99999969
0.99999973
0.99999976
0.99999976
0.99999969
0.99999947
0.99999895
0.99999781
0.99999557
0.99999144
0.9999843
0.99997264
0.99995457
0.9999279
0.9998903
0.99983944
0.99977329
0.99969029
0.99958956
0.99947103
0.99933549
0.99918456
0.99902061
0.9988466
0.99866589
0.99848205
0.99829865
0.99811916
0.9979467
0.99778405
0.9976335
0.99749689
0.99737554
0.9972703
0.99718161
0.9971095
0.99705369
0.9970136
0.99698847
0.99697734
0.99697905
0.9969858
0.99699711
0.99701252
0.99703159
0.99705389
0.99707901
0.9971066
0.9971363
0.9971678
0.99720081
0.99723507
0.99727033
0.99730639
0.99734304
0.99738013
0.99741748
0.99745497
0.99749248
0.99752991
0.99756716
0.99760415
0.99764083
0.99767712
0.99771299
0.99774839
0.99778328
0.99781765
0.99785148
0.99788473
0.99791741
0.99794951
0.99798101
0.99801193
0.99804226
0.99807199
0.99810115
0.99812974
0.99815775
0.99818521
0.99821213
0.9982385
0.99826435
0.99828969
0.99831453
0.99833887
0.99836275
0.99838615
0.99840911
0.99843163
0.99845373
0.99847541
0.99849669
0.99851758
0.9985381
0.99855825
0.99857805
0.9985975
0.99861663
0.99863543
0.99865392
0.99867211
0.99869
0.99870761
0.99872495
0.99874203
0.99875884
0.99877541
0.99879173
0.99880782
0.99882368
0.99883932
0.99885475
0.99886997
0.99888499
0.99889981
0.99891444
0.99892888
0.99894314
0.99895723
0.99897115
0.9989849
0.99899848
0.99901191
0.99902518
0.9990383
0.99905127
0.9990641
0.99907678
0.99908933
0.99910173
0.99911401
0.99912615
0.99913816
0.99915004
0.99916179
0.99917342
0.99918493
0.99919632
0.99920759
0.99921873
0.99922977
0.99924068
0.99925148
0.99926216
0.99927274
0.99928319
0.99929354
0.99930377
0.9993139
0.99932391
0.99933381
0.9993436
0.99935328
0.99936285
0.99937231
0.99938166
0.9993909
0.99940003
0.99940905
0.99941796
0.99942676
0.99943545
0.99944403
0.99945249
0.99946085
0.9994691
0.99947723
0.99948525
0.99949316
0.99950096
0.99950865
0.99951622
0.99952369
0.99953104
0.99953827
0.9995454
0.99955241
0.9995593
0.99956609
0.99957276
0.99957933
0.99958578
0.99959212
0.99959835
0.99960447
0.99961047
0.9996164
1
1
1
1
1
1
1
1
1
1
1
1
0.99999999
0.99999997
0.99999991
0.99999975
0.99999934
0.99999838
0.99999635
0.9999923
0.99998477
0.99997159
0.9999498
0.99991561
0.99986454
0.99979162
0.99969182
0.99956045
0.99939368
0.99918895
0.99894533
0.99866369
0.99834669
0.99799868
0.99762541
0.99723367
0.99683087
0.99642468
0.99602258
0.99563162
0.99525813
0.99490753
0.99458429
0.99429182
0.99403256
0.99380798
0.9936187
0.99346459
0.99334487
0.99325827
0.99320309
0.99317732
0.99317904
0.99319199
0.99321515
0.99324752
0.99328815
0.99333611
0.99339055
0.99345066
0.9935157
0.99358496
0.99365782
0.99373367
0.993812
0.99389232
0.9939742
0.99405725
0.99414112
0.9942255
0.99431012
0.99439473
0.99447913
0.99456312
0.99464656
0.99472929
0.99481121
0.99489222
0.99497223
0.99505117
0.99512898
0.99520563
0.99528107
0.99535529
0.99542826
0.99549997
0.99557042
0.99563961
0.99570754
0.99577423
0.99583968
0.9959039
0.99596693
0.99602877
0.99608944
0.99614898
0.9962074
0.99626472
0.99632098
0.99637619
0.99643039
0.99648359
0.99653583
0.99658712
0.9966375
0.99668699
0.99673561
0.99678339
0.99683035
0.99687651
0.99692191
0.99696655
0.99701046
0.99705366
0.99709617
0.99713802
0.99717922
0.99721978
0.99725973
0.99729909
0.99733786
0.99737608
0.99741374
0.99745087
0.99748749
0.99752359
0.99755921
0.99759435
0.99762901
0.99766323
0.99769699
0.99773033
0.99776324
0.99779574
0.99782783
0.99785952
0.99789083
0.99792176
0.99795231
0.9979825
0.99801233
0.99804181
0.99807094
0.99809973
0.99812819
0.99815632
0.99818412
0.99821161
0.99823877
0.99826563
0.99829217
0.99831841
0.99834435
0.99836999
0.99839533
0.99842038
0.99844514
0.99846961
0.99849379
0.99851768
0.99854129
0.99856462
0.99858767
0.99861043
0.99863292
0.99865512
0.99867705
0.99869871
0.99872008
0.99874118
0.998762
0.99878255
0.99880283
0.99882283
0.99884255
0.998862
0.99888118
0.99890008
0.99891871
0.99893706
0.99895514
0.99897295
0.99899048
0.99900774
0.99902473
0.99904144
0.99905788
0.99907405
0.99908995
0.99910558
0.99912093
0.99913602
0.99915084
0.99916539
0.99917967
0.99919369
0.99920744
0.99922093
0.99923413
0.9992471
1
1
1
1
1
1
1
1
1
1
1
0.99999999
0.99999995
0.99999983
0.99999951
0.99999869
0.99999678
0.99999269
0.99998455
0.99996941
0.9999429
0.99989903
0.99983013
0.99972703
0.99957954
0.99937716
0.99910999
0.99876972
0.99835053
0.99784979
0.9972685
0.99661135
0.99588654
0.99510523
0.99428086
0.99342835
0.99256328
0.99170114
0.99085663
0.99004315
0.98927244
0.98855429
0.98789649
0.98730478
0.98678299
0.98633315
0.98595572
0.9856498
0.98541333
0.98524337
0.98513627
0.98508786
0.98508928
0.98511568
0.98516483
0.98523457
0.98532278
0.98542746
0.9855467
0.98567871
0.98582183
0.9859745
0.9861353
0.98630292
0.98647619
0.98665401
0.98683542
0.98701954
0.9872056
0.98739289
0.98758081
0.98776882
0.98795643
0.98814323
0.98832886
0.98851302
0.98869543
0.98887588
0.98905417
0.98923015
0.98940369
0.9895747
0.98974307
0.98990877
0.99007175
0.99023198
0.99038944
0.99054414
0.99069608
0.99084528
0.99099176
0.99113555
0.9912767
0.99141524
0.99155121
0.99168466
0.99181564
0.9919442
0.9920704
0.99219428
0.9923159
0.99243531
0.99255258
0.99266774
0.99278087
0.992892
0.99300119
0.9931085
0.99321397
0.99331765
0.9934196
0.99351985
0.99361845
0.99371546
0.99381091
0.99390484
0.9939973
0.99408832
0.99417794
0.99426621
0.99435315
0.9944388
0.99452319
0.99460636
0.99468834
0.99476915
0.99484882
0.99492739
0.99500488
0.99508131
0.9951567
0.99523109
0.99530449
0.99537693
0.99544841
0.99551898
0.99558863
0.99565739
0.99572528
0.99579231
0.9958585
0.99592386
0.9959884
0.99605215
0.9961151
0.99617728
0.99623869
0.99629934
0.99635924
0.99641841
0.99647685
0.99653457
0.99659158
0.99664787
0.99670347
0.99675838
0.9968126
0.99686614
0.996919
0.99697119
0.99702271
0.99707356
0.99712376
0.9971733
0.99722219
0.99727042
0.99731801
0.99736496
0.99741126
0.99745692
0.99750194
0.99754632
0.99759007
0.99763318
0.99767567
0.99771752
0.99775874
0.99779934
0.99783931
0.99787865
0.99791738
0.99795548
0.99799296
0.99802982
0.99806607
0.9981017
0.99813671
0.99817112
0.99820491
0.9982381
0.99827068
0.99830266
0.99833404
0.99836483
0.99839501
0.99842461
0.99845361
0.99848202
0.99850983
0.99853702
1
1
1
1
1
1
1
1
1
0.99999999
0.99999997
0.99999989
0.99999963
0.99999891
0.99999707
0.99999285
0.99998391
0.99996628
0.99993382
0.99987756
0.99978537
0.99964187
0.99942889
0.99912638
0.99871387
0.99817221
0.99748539
0.99664229
0.99563792
0.99447424
0.99316023
0.99171151
0.99014931
0.98849925
0.98678979
0.98505075
0.9833119
0.98160165
0.97994613
0.9783684
0.97688801
0.97552076
0.97427866
0.97317007
0.97219995
0.97137021
0.97068009
0.97012657
0.9697048
0.96940845
0.96923011
0.96916158
0.96916747
0.96922438
0.96932779
0.9694733
0.96965665
0.96987378
0.9701208
0.97039409
0.97069024
0.97100612
0.97133882
0.97168568
0.97204427
0.97241239
0.97278806
0.97316949
0.97355507
0.97394338
0.97433317
0.9747233
0.97511281
0.97550082
0.97588661
0.97626952
0.976649
0.97702459
0.97739588
0.97776255
0.97812432
0.97848098
0.97883236
0.97917832
0.97951877
0.97985364
0.9801829
0.98050654
0.98082457
0.98113701
0.9814439
0.9817453
0.98204128
0.98233192
0.98261729
0.98289749
0.98317261
0.98344276
0.98370802
0.98396852
0.98422436
0.98447563
0.98472246
0.98496493
0.98520317
0.98543728
0.98566736
0.9858935
0.98611582
0.98633441
0.98654937
0.98676079
0.98696875
0.98717336
0.9873747
0.98757285
0.98776789
0.9879599
0.98814897
0.98833515
0.98851854
0.98869918
0.98887716
0.98905253
0.98922535
0.9893957
0.98956361
0.98972916
0.98989239
0.99005335
0.99021209
0.99036866
0.9905231
0.99067546
0.99082578
0.9909741
0.99112044
0.99126486
0.99140739
0.99154805
0.99168687
0.9918239
0.99195915
0.99209266
0.99222444
0.99235453
0.99248294
0.9926097
0.99273483
0.99285835
0.99298027
0.99310062
0.99321941
0.99333665
0.99345236
0.99356656
0.99367926
0.99379046
0.99390019
0.99400845
0.99411525
0.9942206
0.99432451
0.994427
0.99452806
0.9946277
0.99472594
0.99482278
0.99491822
0.99501227
0.99510494
0.99519623
0.99528616
0.99537471
0.9954619
0.99554774
0.99563223
0.99571537
0.99579716
0.99587762
0.99595675
0.99603455
0.99611103
0.99618619
0.99626005
0.99633259
0.99640384
0.99647379
0.99654245
0.99660983
0.99667593
0.99674077
0.99680434
0.99686665
0.99692772
0.99698753
0.99704611
0.99710345
0.99715956
0.99721428
1
1
1
1
1
1
1
1
0.99999999
0.99999993
0.99999974
0.9999991
0.9999973
0.99999283
0.99998268
0.99996155
0.99992077
0.99984717
0.99972216
0.99952123
0.99921417
0.99876617
0.99813982
0.99729791
0.99620657
0.99483853
0.99317589
0.99121217
0.9889533
0.98641764
0.98363498
0.98064474
0.97749371
0.97423341
0.97091756
0.96759964
0.96433078
0.9611581
0.95812346
0.95526262
0.95260486
0.95017289
0.947983
0.94604554
0.94436541
0.94294273
0.9417735
0.94085029
0.94016292
0.93969907
0.93944483
0.93938522
0.93941976
0.93955256
0.93977485
0.94007807
0.94045392
0.94089449
0.94139226
0.94194021
0.94253176
0.94316084
0.94382184
0.94450965
0.9452196
0.94594747
0.94668945
0.9474421
0.94820238
0.94896757
0.94973524
0.95050328
0.95126982
0.95203322
0.95279208
0.95354517
0.95429145
0.95503003
0.95576017
0.95648123
0.95719272
0.95789422
0.9585854
0.95926603
0.95993593
0.96059498
0.96124311
0.96188031
0.96250659
0.96312202
0.96372668
0.96432067
0.96490412
0.96547719
0.96604003
0.96659282
0.96713574
0.96766897
0.96819273
0.9687072
0.96921259
0.96970911
0.97019695
0.97067633
0.97114743
0.97161048
0.97206565
0.97251315
0.97295317
0.97338589
0.9738115
0.97423017
0.97464209
0.97504742
0.97544632
0.97583895
0.97622548
0.97660605
0.97698081
0.97734989
0.97771343
0.97807158
0.97842444
0.97877215
0.97911482
0.97945256
0.97978549
0.98011371
0.98043732
0.98075642
0.9810711
0.98138144
0.98168754
0.98198948
0.98228733
0.98258117
0.98287107
0.9831571
0.98343932
0.98371781
0.98399261
0.98426379
0.98453139
0.98479548
0.98505609
0.98531328
0.9855671
0.98581757
0.98606475
0.98630867
0.98654936
0.98678687
0.98702122
0.98725244
0.98748057
0.98770563
0.98792765
0.98814664
0.98836265
0.98857567
0.98878575
0.9889929
0.98919713
0.98939846
0.98959692
0.98979251
0.98998526
0.99017517
0.99036226
0.99054656
0.99072806
0.99090678
0.99108273
0.99125593
0.99142639
0.99159412
0.99175913
0.99192143
0.99208104
0.99223797
0.99239223
0.99254382
0.99269277
0.99283909
0.99298278
0.99312387
0.99326236
0.99339827
0.99353161
0.9936624
0.99379065
0.99391638
0.99403959
0.99416031
0.99427855
0.99439432
0.99450764
0.9946185
0.994727
0.99483263
1
1
1
1
1
1
1
0.99999997
0.99999983
0.99999929
0.99999754
0.99999265
0.99998066
0.99995415
0.99990049
0.99979998
0.99962402
0.99933401
0.99888125
0.99820822
0.99725139
0.99594539
0.99422799
0.99204549
0.98935766
0.98614171
0.98239482
0.97813504
0.97340058
0.96824766
0.96274731
0.95698149
0.95103889
0.94501086
0.93898759
0.93305495
0.92729189
0.92176855
0.91654511
0.91167111
0.90718544
0.90311662
0.89948349
0.89629601
0.89355634
0.8912598
0.88939601
0.88794991
0.88690267
0.88623267
0.8859162
0.88591595
0.88604756
0.88635987
0.88683638
0.88746097
0.88821812
0.88909302
0.89007167
0.89114097
0.89228874
0.8935037
0.89477553
0.89609479
0.89745289
0.89884209
0.90025541
0.90168661
0.90313012
0.90458099
0.90603486
0.90748789
0.90893671
0.91037841
0.91181045
0.91323066
0.91463718
0.91602846
0.91740316
0.91876023
0.92009876
0.92141807
0.9227176
0.92399697
0.92525588
0.92649416
0.92771174
0.92890861
0.93008486
0.9312406
0.93237602
0.93349135
0.93458685
0.93566282
0.93671957
0.93775744
0.93877679
0.93977797
0.94076138
0.94172738
0.94267636
0.94360872
0.94452483
0.94542508
0.94630986
0.94717952
0.94803446
0.94887503
0.94970159
0.95051448
0.95131406
0.95210065
0.95287458
0.95363616
0.9543857
0.9551235
0.95584985
0.95656502
0.95726928
0.9579629
0.95864613
0.95931921
0.95998237
0.96063585
0.96127985
0.96191459
0.96254027
0.96315708
0.96376521
0.96436484
0.96495614
0.96553927
0.9661144
0.96668166
0.96724121
0.96779318
0.96833771
0.96887493
0.96940494
0.96992788
0.97044384
0.97095294
0.97145528
0.97195094
0.97244002
0.97292261
0.97339879
0.97386863
0.97433222
0.97478962
0.9752409
0.97568612
0.97612534
0.97655863
0.97698603
0.9774076
0.97782338
0.97823342
0.97863778
0.97903648
0.97942957
0.97981708
0.98019906
0.98057553
0.98094654
0.9813121
0.98167226
0.98202704
0.98237647
0.98272057
0.98305937
0.98339291
0.98372119
0.98404426
0.98436212
0.98467482
0.98498236
0.98528478
0.9855821
0.98587434
0.98616153
0.9864437
0.98672086
0.98699305
0.98726029
0.98752261
0.98778003
0.98803259
0.98828031
0.98852322
0.98876135
0.98899472
0.98922338
0.98944734
0.98966663
0.98988129
0.99009136
0.99029679
0.99049791
0.99069351
1
1
1
1
1
0.99999999
0.99999993
0.99999955
0.99999791
0.99999252
0.99997768
0.99994224
0.99986662
0.99971959
0.99945543
0.99901197
0.99831042
0.99725732
0.99574877
0.99367675
0.9909368
0.98743629
0.98310226
0.97788786
0.97177693
0.96478606
0.95696436
0.94839086
0.93917025
0.92942719
0.91930009
0.90893464
0.89847771
0.88807194
0.8778512
0.86793718
0.85843692
0.84944146
0.84102525
0.83324638
0.82614733
0.81975611
0.81408776
0.80914586
0.80492419
0.80140828
0.79857692
0.79640353
0.79485742
0.79390484
0.79351004
0.79352385
0.79388597
0.79456649
0.79553577
0.79676494
0.79822621
0.79989313
0.80174079
0.80374584
0.80588664
0.80814321
0.81049723
0.81293199
0.81543236
0.81798464
0.82057656
0.82319713
0.82583656
0.82848619
0.83113837
0.83378641
0.83642444
0.83904739
0.84165086
0.84423112
0.84678496
0.84930971
0.85180313
0.85426339
0.85668902
0.85907886
0.86143201
0.86374786
0.86602596
0.86826608
0.87046816
0.87263224
0.87475852
0.87684728
0.8788989
0.88091384
0.8828926
0.88483575
0.88674389
0.88861766
0.89045773
0.89226478
0.89403951
0.89578263
0.89749484
0.89917686
0.90082941
0.90245317
0.90404886
0.90561716
0.90715875
0.90867429
0.91016443
0.91162982
0.91307106
0.91448877
0.91588354
0.91725594