/*--------------------------------*- C++ -*----------------------------------*\
| =========                 |                                                 |
| \\      /  F ield         | OpenFOAM: The Open Source CFD Toolbox           |
|  \\    /   O peration     | Version:  2406                                  |
|   \\  /    A nd           | Website:  www.openfoam.com                      |
|    \\/     M anipulation  |                                                 |
\*---------------------------------------------------------------------------*/
FoamFile
{
    version     2.0;
    format      ascii;
    arch        "LSB;label=32;scalar=64";
    class       volVectorField;
    location    "2000";
    object      C;
}
// * * * * * * * * * * * * * * * * * * * * * * * * * * * * * * * * * * * * * //

dimensions      [0 1 0 0 0 0 0];

internalField   nonuniform List<vector> 
6800
(
(2.5e-05 1.33965e-05 5e-06)
(7.5e-05 1.33965e-05 5e-06)
(0.000125 1.33965e-05 5e-06)
(0.000175 1.33965e-05 5e-06)
(0.000225 1.33965e-05 5e-06)
(0.000275 1.33965e-05 5e-06)
(0.000325 1.33965e-05 5e-06)
(0.000375 1.33965e-05 5e-06)
(0.000425 1.33965e-05 5e-06)
(0.000475 1.33965e-05 5e-06)
(0.000525 1.33965e-05 5e-06)
(0.000575 1.33965e-05 5e-06)
(0.000625 1.33965e-05 5e-06)
(0.000675 1.33965e-05 5e-06)
(0.000725 1.33965e-05 5e-06)
(0.000775 1.33965e-05 5e-06)
(0.000825 1.33965e-05 5e-06)
(0.000875 1.33965e-05 5e-06)
(0.000925 1.33965e-05 5e-06)
(0.000975 1.33965e-05 5e-06)
(0.001025 1.33965e-05 5e-06)
(0.001075 1.33965e-05 5e-06)
(0.001125 1.33965e-05 5e-06)
(0.001175 1.33965e-05 5e-06)
(0.001225 1.33965e-05 5e-06)
(0.001275 1.33965e-05 5e-06)
(0.001325 1.33965e-05 5e-06)
(0.001375 1.33965e-05 5e-06)
(0.001425 1.33965e-05 5e-06)
(0.001475 1.33965e-05 5e-06)
(0.001525 1.33965e-05 5e-06)
(0.001575 1.33965e-05 5e-06)
(0.001625 1.33965e-05 5e-06)
(0.001675 1.33965e-05 5e-06)
(0.001725 1.33965e-05 5e-06)
(0.001775 1.33965e-05 5e-06)
(0.001825 1.33965e-05 5e-06)
(0.001875 1.33965e-05 5e-06)
(0.001925 1.33965e-05 5e-06)
(0.001975 1.33965e-05 5e-06)
(0.002025 1.33965e-05 5e-06)
(0.002075 1.33965e-05 5e-06)
(0.002125 1.33965e-05 5e-06)
(0.002175 1.33965e-05 5e-06)
(0.002225 1.33965e-05 5e-06)
(0.002275 1.33965e-05 5e-06)
(0.002325 1.33965e-05 5e-06)
(0.002375 1.33965e-05 5e-06)
(0.002425 1.33965e-05 5e-06)
(0.002475 1.33965e-05 5e-06)
(0.002525 1.33965e-05 5e-06)
(0.002575 1.33965e-05 5e-06)
(0.002625 1.33965e-05 5e-06)
(0.002675 1.33965e-05 5e-06)
(0.002725 1.33965e-05 5e-06)
(0.002775 1.33965e-05 5e-06)
(0.002825 1.33965e-05 5e-06)
(0.002875 1.33965e-05 5e-06)
(0.002925 1.33965e-05 5e-06)
(0.002975 1.33965e-05 5e-06)
(0.003025 1.33965e-05 5e-06)
(0.003075 1.33965e-05 5e-06)
(0.003125 1.33965e-05 5e-06)
(0.003175 1.33965e-05 5e-06)
(0.003225 1.33965e-05 5e-06)
(0.003275 1.33965e-05 5e-06)
(0.003325 1.33965e-05 5e-06)
(0.003375 1.33965e-05 5e-06)
(0.003425 1.33965e-05 5e-06)
(0.003475 1.33965e-05 5e-06)
(0.003525 1.33965e-05 5e-06)
(0.003575 1.33965e-05 5e-06)
(0.003625 1.33965e-05 5e-06)
(0.003675 1.33965e-05 5e-06)
(0.003725 1.33965e-05 5e-06)
(0.003775 1.33965e-05 5e-06)
(0.003825 1.33965e-05 5e-06)
(0.003875 1.33965e-05 5e-06)
(0.003925 1.33965e-05 5e-06)
(0.003975 1.33965e-05 5e-06)
(0.004025 1.33965e-05 5e-06)
(0.004075 1.33965e-05 5e-06)
(0.004125 1.33965e-05 5e-06)
(0.004175 1.33965e-05 5e-06)
(0.004225 1.33965e-05 5e-06)
(0.004275 1.33965e-05 5e-06)
(0.004325 1.33965e-05 5e-06)
(0.004375 1.33965e-05 5e-06)
(0.004425 1.33965e-05 5e-06)
(0.004475 1.33965e-05 5e-06)
(0.004525 1.33965e-05 5e-06)
(0.004575 1.33965e-05 5e-06)
(0.004625 1.33965e-05 5e-06)
(0.004675 1.33965e-05 5e-06)
(0.004725 1.33965e-05 5e-06)
(0.004775 1.33965e-05 5e-06)
(0.004825 1.33965e-05 5e-06)
(0.004875 1.33965e-05 5e-06)
(0.004925 1.33965e-05 5e-06)
(0.004975 1.33965e-05 5e-06)
(0.005025 1.33965e-05 5e-06)
(0.005075 1.33965e-05 5e-06)
(0.005125 1.33965e-05 5e-06)
(0.005175 1.33965e-05 5e-06)
(0.005225 1.33965e-05 5e-06)
(0.005275 1.33965e-05 5e-06)
(0.005325 1.33965e-05 5e-06)
(0.005375 1.33965e-05 5e-06)
(0.005425 1.33965e-05 5e-06)
(0.005475 1.33965e-05 5e-06)
(0.005525 1.33965e-05 5e-06)
(0.005575 1.33965e-05 5e-06)
(0.005625 1.33965e-05 5e-06)
(0.005675 1.33965e-05 5e-06)
(0.005725 1.33965e-05 5e-06)
(0.005775 1.33965e-05 5e-06)
(0.005825 1.33965e-05 5e-06)
(0.005875 1.33965e-05 5e-06)
(0.005925 1.33965e-05 5e-06)
(0.005975 1.33965e-05 5e-06)
(0.006025 1.33965e-05 5e-06)
(0.006075 1.33965e-05 5e-06)
(0.006125 1.33965e-05 5e-06)
(0.006175 1.33965e-05 5e-06)
(0.006225 1.33965e-05 5e-06)
(0.006275 1.33965e-05 5e-06)
(0.006325 1.33965e-05 5e-06)
(0.006375 1.33965e-05 5e-06)
(0.006425 1.33965e-05 5e-06)
(0.006475 1.33965e-05 5e-06)
(0.006525 1.33965e-05 5e-06)
(0.006575 1.33965e-05 5e-06)
(0.006625 1.33965e-05 5e-06)
(0.006675 1.33965e-05 5e-06)
(0.006725 1.33965e-05 5e-06)
(0.006775 1.33965e-05 5e-06)
(0.006825 1.33965e-05 5e-06)
(0.006875 1.33965e-05 5e-06)
(0.006925 1.33965e-05 5e-06)
(0.006975 1.33965e-05 5e-06)
(0.007025 1.33965e-05 5e-06)
(0.007075 1.33965e-05 5e-06)
(0.007125 1.33965e-05 5e-06)
(0.007175 1.33965e-05 5e-06)
(0.007225 1.33965e-05 5e-06)
(0.007275 1.33965e-05 5e-06)
(0.007325 1.33965e-05 5e-06)
(0.007375 1.33965e-05 5e-06)
(0.007425 1.33965e-05 5e-06)
(0.007475 1.33965e-05 5e-06)
(0.007525 1.33965e-05 5e-06)
(0.007575 1.33965e-05 5e-06)
(0.007625 1.33965e-05 5e-06)
(0.007675 1.33965e-05 5e-06)
(0.007725 1.33965e-05 5e-06)
(0.007775 1.33965e-05 5e-06)
(0.007825 1.33965e-05 5e-06)
(0.007875 1.33965e-05 5e-06)
(0.007925 1.33965e-05 5e-06)
(0.007975 1.33965e-05 5e-06)
(0.008025 1.33965e-05 5e-06)
(0.008075 1.33965e-05 5e-06)
(0.008125 1.33965e-05 5e-06)
(0.008175 1.33965e-05 5e-06)
(0.008225 1.33965e-05 5e-06)
(0.008275 1.33965e-05 5e-06)
(0.008325 1.33965e-05 5e-06)
(0.008375 1.33965e-05 5e-06)
(0.008425 1.33965e-05 5e-06)
(0.008475 1.33965e-05 5e-06)
(0.008525 1.33965e-05 5e-06)
(0.008575 1.33965e-05 5e-06)
(0.008625 1.33965e-05 5e-06)
(0.008675 1.33965e-05 5e-06)
(0.008725 1.33965e-05 5e-06)
(0.008775 1.33965e-05 5e-06)
(0.008825 1.33965e-05 5e-06)
(0.008875 1.33965e-05 5e-06)
(0.008925 1.33965e-05 5e-06)
(0.008975 1.33965e-05 5e-06)
(0.009025 1.33965e-05 5e-06)
(0.009075 1.33965e-05 5e-06)
(0.009125 1.33965e-05 5e-06)
(0.009175 1.33965e-05 5e-06)
(0.009225 1.33965e-05 5e-06)
(0.009275 1.33965e-05 5e-06)
(0.009325 1.33965e-05 5e-06)
(0.009375 1.33965e-05 5e-06)
(0.009425 1.33965e-05 5e-06)
(0.009475 1.33965e-05 5e-06)
(0.009525 1.33965e-05 5e-06)
(0.009575 1.33965e-05 5e-06)
(0.009625 1.33965e-05 5e-06)
(0.009675 1.33965e-05 5e-06)
(0.009725 1.33965e-05 5e-06)
(0.009775 1.33965e-05 5e-06)
(0.009825 1.33965e-05 5e-06)
(0.009875 1.33965e-05 5e-06)
(0.009925 1.33965e-05 5e-06)
(0.009975 1.33965e-05 5e-06)
(2.5e-05 4.01895e-05 5e-06)
(7.5e-05 4.01895e-05 5e-06)
(0.000125 4.01895e-05 5e-06)
(0.000175 4.01895e-05 5e-06)
(0.000225 4.01895e-05 5e-06)
(0.000275 4.01895e-05 5e-06)
(0.000325 4.01895e-05 5e-06)
(0.000375 4.01895e-05 5e-06)
(0.000425 4.01895e-05 5e-06)
(0.000475 4.01895e-05 5e-06)
(0.000525 4.01895e-05 5e-06)
(0.000575 4.01895e-05 5e-06)
(0.000625 4.01895e-05 5e-06)
(0.000675 4.01895e-05 5e-06)
(0.000725 4.01895e-05 5e-06)
(0.000775 4.01895e-05 5e-06)
(0.000825 4.01895e-05 5e-06)
(0.000875 4.01895e-05 5e-06)
(0.000925 4.01895e-05 5e-06)
(0.000975 4.01895e-05 5e-06)
(0.001025 4.01895e-05 5e-06)
(0.001075 4.01895e-05 5e-06)
(0.001125 4.01895e-05 5e-06)
(0.001175 4.01895e-05 5e-06)
(0.001225 4.01895e-05 5e-06)
(0.001275 4.01895e-05 5e-06)
(0.001325 4.01895e-05 5e-06)
(0.001375 4.01895e-05 5e-06)
(0.001425 4.01895e-05 5e-06)
(0.001475 4.01895e-05 5e-06)
(0.001525 4.01895e-05 5e-06)
(0.001575 4.01895e-05 5e-06)
(0.001625 4.01895e-05 5e-06)
(0.001675 4.01895e-05 5e-06)
(0.001725 4.01895e-05 5e-06)
(0.001775 4.01895e-05 5e-06)
(0.001825 4.01895e-05 5e-06)
(0.001875 4.01895e-05 5e-06)
(0.001925 4.01895e-05 5e-06)
(0.001975 4.01895e-05 5e-06)
(0.002025 4.01895e-05 5e-06)
(0.002075 4.01895e-05 5e-06)
(0.002125 4.01895e-05 5e-06)
(0.002175 4.01895e-05 5e-06)
(0.002225 4.01895e-05 5e-06)
(0.002275 4.01895e-05 5e-06)
(0.002325 4.01895e-05 5e-06)
(0.002375 4.01895e-05 5e-06)
(0.002425 4.01895e-05 5e-06)
(0.002475 4.01895e-05 5e-06)
(0.002525 4.01895e-05 5e-06)
(0.002575 4.01895e-05 5e-06)
(0.002625 4.01895e-05 5e-06)
(0.002675 4.01895e-05 5e-06)
(0.002725 4.01895e-05 5e-06)
(0.002775 4.01895e-05 5e-06)
(0.002825 4.01895e-05 5e-06)
(0.002875 4.01895e-05 5e-06)
(0.002925 4.01895e-05 5e-06)
(0.002975 4.01895e-05 5e-06)
(0.003025 4.01895e-05 5e-06)
(0.003075 4.01895e-05 5e-06)
(0.003125 4.01895e-05 5e-06)
(0.003175 4.01895e-05 5e-06)
(0.003225 4.01895e-05 5e-06)
(0.003275 4.01895e-05 5e-06)
(0.003325 4.01895e-05 5e-06)
(0.003375 4.01895e-05 5e-06)
(0.003425 4.01895e-05 5e-06)
(0.003475 4.01895e-05 5e-06)
(0.003525 4.01895e-05 5e-06)
(0.003575 4.01895e-05 5e-06)
(0.003625 4.01895e-05 5e-06)
(0.003675 4.01895e-05 5e-06)
(0.003725 4.01895e-05 5e-06)
(0.003775 4.01895e-05 5e-06)
(0.003825 4.01895e-05 5e-06)
(0.003875 4.01895e-05 5e-06)
(0.003925 4.01895e-05 5e-06)
(0.003975 4.01895e-05 5e-06)
(0.004025 4.01895e-05 5e-06)
(0.004075 4.01895e-05 5e-06)
(0.004125 4.01895e-05 5e-06)
(0.004175 4.01895e-05 5e-06)
(0.004225 4.01895e-05 5e-06)
(0.004275 4.01895e-05 5e-06)
(0.004325 4.01895e-05 5e-06)
(0.004375 4.01895e-05 5e-06)
(0.004425 4.01895e-05 5e-06)
(0.004475 4.01895e-05 5e-06)
(0.004525 4.01895e-05 5e-06)
(0.004575 4.01895e-05 5e-06)
(0.004625 4.01895e-05 5e-06)
(0.004675 4.01895e-05 5e-06)
(0.004725 4.01895e-05 5e-06)
(0.004775 4.01895e-05 5e-06)
(0.004825 4.01895e-05 5e-06)
(0.004875 4.01895e-05 5e-06)
(0.004925 4.01895e-05 5e-06)
(0.004975 4.01895e-05 5e-06)
(0.005025 4.01895e-05 5e-06)
(0.005075 4.01895e-05 5e-06)
(0.005125 4.01895e-05 5e-06)
(0.005175 4.01895e-05 5e-06)
(0.005225 4.01895e-05 5e-06)
(0.005275 4.01895e-05 5e-06)
(0.005325 4.01895e-05 5e-06)
(0.005375 4.01895e-05 5e-06)
(0.005425 4.01895e-05 5e-06)
(0.005475 4.01895e-05 5e-06)
(0.005525 4.01895e-05 5e-06)
(0.005575 4.01895e-05 5e-06)
(0.005625 4.01895e-05 5e-06)
(0.005675 4.01895e-05 5e-06)
(0.005725 4.01895e-05 5e-06)
(0.005775 4.01895e-05 5e-06)
(0.005825 4.01895e-05 5e-06)
(0.005875 4.01895e-05 5e-06)
(0.005925 4.01895e-05 5e-06)
(0.005975 4.01895e-05 5e-06)
(0.006025 4.01895e-05 5e-06)
(0.006075 4.01895e-05 5e-06)
(0.006125 4.01895e-05 5e-06)
(0.006175 4.01895e-05 5e-06)
(0.006225 4.01895e-05 5e-06)
(0.006275 4.01895e-05 5e-06)
(0.006325 4.01895e-05 5e-06)
(0.006375 4.01895e-05 5e-06)
(0.006425 4.01895e-05 5e-06)
(0.006475 4.01895e-05 5e-06)
(0.006525 4.01895e-05 5e-06)
(0.006575 4.01895e-05 5e-06)
(0.006625 4.01895e-05 5e-06)
(0.006675 4.01895e-05 5e-06)
(0.006725 4.01895e-05 5e-06)
(0.006775 4.01895e-05 5e-06)
(0.006825 4.01895e-05 5e-06)
(0.006875 4.01895e-05 5e-06)
(0.006925 4.01895e-05 5e-06)
(0.006975 4.01895e-05 5e-06)
(0.007025 4.01895e-05 5e-06)
(0.007075 4.01895e-05 5e-06)
(0.007125 4.01895e-05 5e-06)
(0.007175 4.01895e-05 5e-06)
(0.007225 4.01895e-05 5e-06)
(0.007275 4.01895e-05 5e-06)
(0.007325 4.01895e-05 5e-06)
(0.007375 4.01895e-05 5e-06)
(0.007425 4.01895e-05 5e-06)
(0.007475 4.01895e-05 5e-06)
(0.007525 4.01895e-05 5e-06)
(0.007575 4.01895e-05 5e-06)
(0.007625 4.01895e-05 5e-06)
(0.007675 4.01895e-05 5e-06)
(0.007725 4.01895e-05 5e-06)
(0.007775 4.01895e-05 5e-06)
(0.007825 4.01895e-05 5e-06)
(0.007875 4.01895e-05 5e-06)
(0.007925 4.01895e-05 5e-06)
(0.007975 4.01895e-05 5e-06)
(0.008025 4.01895e-05 5e-06)
(0.008075 4.01895e-05 5e-06)
(0.008125 4.01895e-05 5e-06)
(0.008175 4.01895e-05 5e-06)
(0.008225 4.01895e-05 5e-06)
(0.008275 4.01895e-05 5e-06)
(0.008325 4.01895e-05 5e-06)
(0.008375 4.01895e-05 5e-06)
(0.008425 4.01895e-05 5e-06)
(0.008475 4.01895e-05 5e-06)
(0.008525 4.01895e-05 5e-06)
(0.008575 4.01895e-05 5e-06)
(0.008625 4.01895e-05 5e-06)
(0.008675 4.01895e-05 5e-06)
(0.008725 4.01895e-05 5e-06)
(0.008775 4.01895e-05 5e-06)
(0.008825 4.01895e-05 5e-06)
(0.008875 4.01895e-05 5e-06)
(0.008925 4.01895e-05 5e-06)
(0.008975 4.01895e-05 5e-06)
(0.009025 4.01895e-05 5e-06)
(0.009075 4.01895e-05 5e-06)
(0.009125 4.01895e-05 5e-06)
(0.009175 4.01895e-05 5e-06)
(0.009225 4.01895e-05 5e-06)
(0.009275 4.01895e-05 5e-06)
(0.009325 4.01895e-05 5e-06)
(0.009375 4.01895e-05 5e-06)
(0.009425 4.01895e-05 5e-06)
(0.009475 4.01895e-05 5e-06)
(0.009525 4.01895e-05 5e-06)
(0.009575 4.01895e-05 5e-06)
(0.009625 4.01895e-05 5e-06)
(0.009675 4.01895e-05 5e-06)
(0.009725 4.01895e-05 5e-06)
(0.009775 4.01895e-05 5e-06)
(0.009825 4.01895e-05 5e-06)
(0.009875 4.01895e-05 5e-06)
(0.009925 4.01895e-05 5e-06)
(0.009975 4.01895e-05 5e-06)
(2.5e-05 7.8586e-05 5e-06)
(7.5e-05 7.8586e-05 5e-06)
(0.000125 7.8586e-05 5e-06)
(0.000175 7.8586e-05 5e-06)
(0.000225 7.8586e-05 5e-06)
(0.000275 7.8586e-05 5e-06)
(0.000325 7.8586e-05 5e-06)
(0.000375 7.8586e-05 5e-06)
(0.000425 7.8586e-05 5e-06)
(0.000475 7.8586e-05 5e-06)
(0.000525 7.8586e-05 5e-06)
(0.000575 7.8586e-05 5e-06)
(0.000625 7.8586e-05 5e-06)
(0.000675 7.8586e-05 5e-06)
(0.000725 7.8586e-05 5e-06)
(0.000775 7.8586e-05 5e-06)
(0.000825 7.8586e-05 5e-06)
(0.000875 7.8586e-05 5e-06)
(0.000925 7.8586e-05 5e-06)
(0.000975 7.8586e-05 5e-06)
(0.001025 7.8586e-05 5e-06)
(0.001075 7.8586e-05 5e-06)
(0.001125 7.8586e-05 5e-06)
(0.001175 7.8586e-05 5e-06)
(0.001225 7.8586e-05 5e-06)
(0.001275 7.8586e-05 5e-06)
(0.001325 7.8586e-05 5e-06)
(0.001375 7.8586e-05 5e-06)
(0.001425 7.8586e-05 5e-06)
(0.001475 7.8586e-05 5e-06)
(0.001525 7.8586e-05 5e-06)
(0.001575 7.8586e-05 5e-06)
(0.001625 7.8586e-05 5e-06)
(0.001675 7.8586e-05 5e-06)
(0.001725 7.8586e-05 5e-06)
(0.001775 7.8586e-05 5e-06)
(0.001825 7.8586e-05 5e-06)
(0.001875 7.8586e-05 5e-06)
(0.001925 7.8586e-05 5e-06)
(0.001975 7.8586e-05 5e-06)
(0.002025 7.8586e-05 5e-06)
(0.002075 7.8586e-05 5e-06)
(0.002125 7.8586e-05 5e-06)
(0.002175 7.8586e-05 5e-06)
(0.002225 7.8586e-05 5e-06)
(0.002275 7.8586e-05 5e-06)
(0.002325 7.8586e-05 5e-06)
(0.002375 7.8586e-05 5e-06)
(0.002425 7.8586e-05 5e-06)
(0.002475 7.8586e-05 5e-06)
(0.002525 7.8586e-05 5e-06)
(0.002575 7.8586e-05 5e-06)
(0.002625 7.8586e-05 5e-06)
(0.002675 7.8586e-05 5e-06)
(0.002725 7.8586e-05 5e-06)
(0.002775 7.8586e-05 5e-06)
(0.002825 7.8586e-05 5e-06)
(0.002875 7.8586e-05 5e-06)
(0.002925 7.8586e-05 5e-06)
(0.002975 7.8586e-05 5e-06)
(0.003025 7.8586e-05 5e-06)
(0.003075 7.8586e-05 5e-06)
(0.003125 7.8586e-05 5e-06)
(0.003175 7.8586e-05 5e-06)
(0.003225 7.8586e-05 5e-06)
(0.003275 7.8586e-05 5e-06)
(0.003325 7.8586e-05 5e-06)
(0.003375 7.8586e-05 5e-06)
(0.003425 7.8586e-05 5e-06)
(0.003475 7.8586e-05 5e-06)
(0.003525 7.8586e-05 5e-06)
(0.003575 7.8586e-05 5e-06)
(0.003625 7.8586e-05 5e-06)
(0.003675 7.8586e-05 5e-06)
(0.003725 7.8586e-05 5e-06)
(0.003775 7.8586e-05 5e-06)
(0.003825 7.8586e-05 5e-06)
(0.003875 7.8586e-05 5e-06)
(0.003925 7.8586e-05 5e-06)
(0.003975 7.8586e-05 5e-06)
(0.004025 7.8586e-05 5e-06)
(0.004075 7.8586e-05 5e-06)
(0.004125 7.8586e-05 5e-06)
(0.004175 7.8586e-05 5e-06)
(0.004225 7.8586e-05 5e-06)
(0.004275 7.8586e-05 5e-06)
(0.004325 7.8586e-05 5e-06)
(0.004375 7.8586e-05 5e-06)
(0.004425 7.8586e-05 5e-06)
(0.004475 7.8586e-05 5e-06)
(0.004525 7.8586e-05 5e-06)
(0.004575 7.8586e-05 5e-06)
(0.004625 7.8586e-05 5e-06)
(0.004675 7.8586e-05 5e-06)
(0.004725 7.8586e-05 5e-06)
(0.004775 7.8586e-05 5e-06)
(0.004825 7.8586e-05 5e-06)
(0.004875 7.8586e-05 5e-06)
(0.004925 7.8586e-05 5e-06)
(0.004975 7.8586e-05 5e-06)
(0.005025 7.8586e-05 5e-06)
(0.005075 7.8586e-05 5e-06)
(0.005125 7.8586e-05 5e-06)
(0.005175 7.8586e-05 5e-06)
(0.005225 7.8586e-05 5e-06)
(0.005275 7.8586e-05 5e-06)
(0.005325 7.8586e-05 5e-06)
(0.005375 7.8586e-05 5e-06)
(0.005425 7.8586e-05 5e-06)
(0.005475 7.8586e-05 5e-06)
(0.005525 7.8586e-05 5e-06)
(0.005575 7.8586e-05 5e-06)
(0.005625 7.8586e-05 5e-06)
(0.005675 7.8586e-05 5e-06)
(0.005725 7.8586e-05 5e-06)
(0.005775 7.8586e-05 5e-06)
(0.005825 7.8586e-05 5e-06)
(0.005875 7.8586e-05 5e-06)
(0.005925 7.8586e-05 5e-06)
(0.005975 7.8586e-05 5e-06)
(0.006025 7.8586e-05 5e-06)
(0.006075 7.8586e-05 5e-06)
(0.006125 7.8586e-05 5e-06)
(0.006175 7.8586e-05 5e-06)
(0.006225 7.8586e-05 5e-06)
(0.006275 7.8586e-05 5e-06)
(0.006325 7.8586e-05 5e-06)
(0.006375 7.8586e-05 5e-06)
(0.006425 7.8586e-05 5e-06)
(0.006475 7.8586e-05 5e-06)
(0.006525 7.8586e-05 5e-06)
(0.006575 7.8586e-05 5e-06)
(0.006625 7.8586e-05 5e-06)
(0.006675 7.8586e-05 5e-06)
(0.006725 7.8586e-05 5e-06)
(0.006775 7.8586e-05 5e-06)
(0.006825 7.8586e-05 5e-06)
(0.006875 7.8586e-05 5e-06)
(0.006925 7.8586e-05 5e-06)
(0.006975 7.8586e-05 5e-06)
(0.007025 7.8586e-05 5e-06)
(0.007075 7.8586e-05 5e-06)
(0.007125 7.8586e-05 5e-06)
(0.007175 7.8586e-05 5e-06)
(0.007225 7.8586e-05 5e-06)
(0.007275 7.8586e-05 5e-06)
(0.007325 7.8586e-05 5e-06)
(0.007375 7.8586e-05 5e-06)
(0.007425 7.8586e-05 5e-06)
(0.007475 7.8586e-05 5e-06)
(0.007525 7.8586e-05 5e-06)
(0.007575 7.8586e-05 5e-06)
(0.007625 7.8586e-05 5e-06)
(0.007675 7.8586e-05 5e-06)
(0.007725 7.8586e-05 5e-06)
(0.007775 7.8586e-05 5e-06)
(0.007825 7.8586e-05 5e-06)
(0.007875 7.8586e-05 5e-06)
(0.007925 7.8586e-05 5e-06)
(0.007975 7.8586e-05 5e-06)
(0.008025 7.8586e-05 5e-06)
(0.008075 7.8586e-05 5e-06)
(0.008125 7.8586e-05 5e-06)
(0.008175 7.8586e-05 5e-06)
(0.008225 7.8586e-05 5e-06)
(0.008275 7.8586e-05 5e-06)
(0.008325 7.8586e-05 5e-06)
(0.008375 7.8586e-05 5e-06)
(0.008425 7.8586e-05 5e-06)
(0.008475 7.8586e-05 5e-06)
(0.008525 7.8586e-05 5e-06)
(0.008575 7.8586e-05 5e-06)
(0.008625 7.8586e-05 5e-06)
(0.008675 7.8586e-05 5e-06)
(0.008725 7.8586e-05 5e-06)
(0.008775 7.8586e-05 5e-06)
(0.008825 7.8586e-05 5e-06)
(0.008875 7.8586e-05 5e-06)
(0.008925 7.8586e-05 5e-06)
(0.008975 7.8586e-05 5e-06)
(0.009025 7.8586e-05 5e-06)
(0.009075 7.8586e-05 5e-06)
(0.009125 7.8586e-05 5e-06)
(0.009175 7.8586e-05 5e-06)
(0.009225 7.8586e-05 5e-06)
(0.009275 7.8586e-05 5e-06)
(0.009325 7.8586e-05 5e-06)
(0.009375 7.8586e-05 5e-06)
(0.009425 7.8586e-05 5e-06)
(0.009475 7.8586e-05 5e-06)
(0.009525 7.8586e-05 5e-06)
(0.009575 7.8586e-05 5e-06)
(0.009625 7.8586e-05 5e-06)
(0.009675 7.8586e-05 5e-06)
(0.009725 7.8586e-05 5e-06)
(0.009775 7.8586e-05 5e-06)
(0.009825 7.8586e-05 5e-06)
(0.009875 7.8586e-05 5e-06)
(0.009925 7.8586e-05 5e-06)
(0.009975 7.8586e-05 5e-06)
(2.5e-05 0.000128586 5e-06)
(7.5e-05 0.000128586 5e-06)
(0.000125 0.000128586 5e-06)
(0.000175 0.000128586 5e-06)
(0.000225 0.000128586 5e-06)
(0.000275 0.000128586 5e-06)
(0.000325 0.000128586 5e-06)
(0.000375 0.000128586 5e-06)
(0.000425 0.000128586 5e-06)
(0.000475 0.000128586 5e-06)
(0.000525 0.000128586 5e-06)
(0.000575 0.000128586 5e-06)
(0.000625 0.000128586 5e-06)
(0.000675 0.000128586 5e-06)
(0.000725 0.000128586 5e-06)
(0.000775 0.000128586 5e-06)
(0.000825 0.000128586 5e-06)
(0.000875 0.000128586 5e-06)
(0.000925 0.000128586 5e-06)
(0.000975 0.000128586 5e-06)
(0.001025 0.000128586 5e-06)
(0.001075 0.000128586 5e-06)
(0.001125 0.000128586 5e-06)
(0.001175 0.000128586 5e-06)
(0.001225 0.000128586 5e-06)
(0.001275 0.000128586 5e-06)
(0.001325 0.000128586 5e-06)
(0.001375 0.000128586 5e-06)
(0.001425 0.000128586 5e-06)
(0.001475 0.000128586 5e-06)
(0.001525 0.000128586 5e-06)
(0.001575 0.000128586 5e-06)
(0.001625 0.000128586 5e-06)
(0.001675 0.000128586 5e-06)
(0.001725 0.000128586 5e-06)
(0.001775 0.000128586 5e-06)
(0.001825 0.000128586 5e-06)
(0.001875 0.000128586 5e-06)
(0.001925 0.000128586 5e-06)
(0.001975 0.000128586 5e-06)
(0.002025 0.000128586 5e-06)
(0.002075 0.000128586 5e-06)
(0.002125 0.000128586 5e-06)
(0.002175 0.000128586 5e-06)
(0.002225 0.000128586 5e-06)
(0.002275 0.000128586 5e-06)
(0.002325 0.000128586 5e-06)
(0.002375 0.000128586 5e-06)
(0.002425 0.000128586 5e-06)
(0.002475 0.000128586 5e-06)
(0.002525 0.000128586 5e-06)
(0.002575 0.000128586 5e-06)
(0.002625 0.000128586 5e-06)
(0.002675 0.000128586 5e-06)
(0.002725 0.000128586 5e-06)
(0.002775 0.000128586 5e-06)
(0.002825 0.000128586 5e-06)
(0.002875 0.000128586 5e-06)
(0.002925 0.000128586 5e-06)
(0.002975 0.000128586 5e-06)
(0.003025 0.000128586 5e-06)
(0.003075 0.000128586 5e-06)
(0.003125 0.000128586 5e-06)
(0.003175 0.000128586 5e-06)
(0.003225 0.000128586 5e-06)
(0.003275 0.000128586 5e-06)
(0.003325 0.000128586 5e-06)
(0.003375 0.000128586 5e-06)
(0.003425 0.000128586 5e-06)
(0.003475 0.000128586 5e-06)
(0.003525 0.000128586 5e-06)
(0.003575 0.000128586 5e-06)
(0.003625 0.000128586 5e-06)
(0.003675 0.000128586 5e-06)
(0.003725 0.000128586 5e-06)
(0.003775 0.000128586 5e-06)
(0.003825 0.000128586 5e-06)
(0.003875 0.000128586 5e-06)
(0.003925 0.000128586 5e-06)
(0.003975 0.000128586 5e-06)
(0.004025 0.000128586 5e-06)
(0.004075 0.000128586 5e-06)
(0.004125 0.000128586 5e-06)
(0.004175 0.000128586 5e-06)
(0.004225 0.000128586 5e-06)
(0.004275 0.000128586 5e-06)
(0.004325 0.000128586 5e-06)
(0.004375 0.000128586 5e-06)
(0.004425 0.000128586 5e-06)
(0.004475 0.000128586 5e-06)
(0.004525 0.000128586 5e-06)
(0.004575 0.000128586 5e-06)
(0.004625 0.000128586 5e-06)
(0.004675 0.000128586 5e-06)
(0.004725 0.000128586 5e-06)
(0.004775 0.000128586 5e-06)
(0.004825 0.000128586 5e-06)
(0.004875 0.000128586 5e-06)
(0.004925 0.000128586 5e-06)
(0.004975 0.000128586 5e-06)
(0.005025 0.000128586 5e-06)
(0.005075 0.000128586 5e-06)
(0.005125 0.000128586 5e-06)
(0.005175 0.000128586 5e-06)
(0.005225 0.000128586 5e-06)
(0.005275 0.000128586 5e-06)
(0.005325 0.000128586 5e-06)
(0.005375 0.000128586 5e-06)
(0.005425 0.000128586 5e-06)
(0.005475 0.000128586 5e-06)
(0.005525 0.000128586 5e-06)
(0.005575 0.000128586 5e-06)
(0.005625 0.000128586 5e-06)
(0.005675 0.000128586 5e-06)
(0.005725 0.000128586 5e-06)
(0.005775 0.000128586 5e-06)
(0.005825 0.000128586 5e-06)
(0.005875 0.000128586 5e-06)
(0.005925 0.000128586 5e-06)
(0.005975 0.000128586 5e-06)
(0.006025 0.000128586 5e-06)
(0.006075 0.000128586 5e-06)
(0.006125 0.000128586 5e-06)
(0.006175 0.000128586 5e-06)
(0.006225 0.000128586 5e-06)
(0.006275 0.000128586 5e-06)
(0.006325 0.000128586 5e-06)
(0.006375 0.000128586 5e-06)
(0.006425 0.000128586 5e-06)
(0.006475 0.000128586 5e-06)
(0.006525 0.000128586 5e-06)
(0.006575 0.000128586 5e-06)
(0.006625 0.000128586 5e-06)
(0.006675 0.000128586 5e-06)
(0.006725 0.000128586 5e-06)
(0.006775 0.000128586 5e-06)
(0.006825 0.000128586 5e-06)
(0.006875 0.000128586 5e-06)
(0.006925 0.000128586 5e-06)
(0.006975 0.000128586 5e-06)
(0.007025 0.000128586 5e-06)
(0.007075 0.000128586 5e-06)
(0.007125 0.000128586 5e-06)
(0.007175 0.000128586 5e-06)
(0.007225 0.000128586 5e-06)
(0.007275 0.000128586 5e-06)
(0.007325 0.000128586 5e-06)
(0.007375 0.000128586 5e-06)
(0.007425 0.000128586 5e-06)
(0.007475 0.000128586 5e-06)
(0.007525 0.000128586 5e-06)
(0.007575 0.000128586 5e-06)
(0.007625 0.000128586 5e-06)
(0.007675 0.000128586 5e-06)
(0.007725 0.000128586 5e-06)
(0.007775 0.000128586 5e-06)
(0.007825 0.000128586 5e-06)
(0.007875 0.000128586 5e-06)
(0.007925 0.000128586 5e-06)
(0.007975 0.000128586 5e-06)
(0.008025 0.000128586 5e-06)
(0.008075 0.000128586 5e-06)
(0.008125 0.000128586 5e-06)
(0.008175 0.000128586 5e-06)
(0.008225 0.000128586 5e-06)
(0.008275 0.000128586 5e-06)
(0.008325 0.000128586 5e-06)
(0.008375 0.000128586 5e-06)
(0.008425 0.000128586 5e-06)
(0.008475 0.000128586 5e-06)
(0.008525 0.000128586 5e-06)
(0.008575 0.000128586 5e-06)
(0.008625 0.000128586 5e-06)
(0.008675 0.000128586 5e-06)
(0.008725 0.000128586 5e-06)
(0.008775 0.000128586 5e-06)
(0.008825 0.000128586 5e-06)
(0.008875 0.000128586 5e-06)
(0.008925 0.000128586 5e-06)
(0.008975 0.000128586 5e-06)
(0.009025 0.000128586 5e-06)
(0.009075 0.000128586 5e-06)
(0.009125 0.000128586 5e-06)
(0.009175 0.000128586 5e-06)
(0.009225 0.000128586 5e-06)
(0.009275 0.000128586 5e-06)
(0.009325 0.000128586 5e-06)
(0.009375 0.000128586 5e-06)
(0.009425 0.000128586 5e-06)
(0.009475 0.000128586 5e-06)
(0.009525 0.000128586 5e-06)
(0.009575 0.000128586 5e-06)
(0.009625 0.000128586 5e-06)
(0.009675 0.000128586 5e-06)
(0.009725 0.000128586 5e-06)
(0.009775 0.000128586 5e-06)
(0.009825 0.000128586 5e-06)
(0.009875 0.000128586 5e-06)
(0.009925 0.000128586 5e-06)
(0.009975 0.000128586 5e-06)
(2.5e-05 0.000178586 5e-06)
(7.5e-05 0.000178586 5e-06)
(0.000125 0.000178586 5e-06)
(0.000175 0.000178586 5e-06)
(0.000225 0.000178586 5e-06)
(0.000275 0.000178586 5e-06)
(0.000325 0.000178586 5e-06)
(0.000375 0.000178586 5e-06)
(0.000425 0.000178586 5e-06)
(0.000475 0.000178586 5e-06)
(0.000525 0.000178586 5e-06)
(0.000575 0.000178586 5e-06)
(0.000625 0.000178586 5e-06)
(0.000675 0.000178586 5e-06)
(0.000725 0.000178586 5e-06)
(0.000775 0.000178586 5e-06)
(0.000825 0.000178586 5e-06)
(0.000875 0.000178586 5e-06)
(0.000925 0.000178586 5e-06)
(0.000975 0.000178586 5e-06)
(0.001025 0.000178586 5e-06)
(0.001075 0.000178586 5e-06)
(0.001125 0.000178586 5e-06)
(0.001175 0.000178586 5e-06)
(0.001225 0.000178586 5e-06)
(0.001275 0.000178586 5e-06)
(0.001325 0.000178586 5e-06)
(0.001375 0.000178586 5e-06)
(0.001425 0.000178586 5e-06)
(0.001475 0.000178586 5e-06)
(0.001525 0.000178586 5e-06)
(0.001575 0.000178586 5e-06)
(0.001625 0.000178586 5e-06)
(0.001675 0.000178586 5e-06)
(0.001725 0.000178586 5e-06)
(0.001775 0.000178586 5e-06)
(0.001825 0.000178586 5e-06)
(0.001875 0.000178586 5e-06)
(0.001925 0.000178586 5e-06)
(0.001975 0.000178586 5e-06)
(0.002025 0.000178586 5e-06)
(0.002075 0.000178586 5e-06)
(0.002125 0.000178586 5e-06)
(0.002175 0.000178586 5e-06)
(0.002225 0.000178586 5e-06)
(0.002275 0.000178586 5e-06)
(0.002325 0.000178586 5e-06)
(0.002375 0.000178586 5e-06)
(0.002425 0.000178586 5e-06)
(0.002475 0.000178586 5e-06)
(0.002525 0.000178586 5e-06)
(0.002575 0.000178586 5e-06)
(0.002625 0.000178586 5e-06)
(0.002675 0.000178586 5e-06)
(0.002725 0.000178586 5e-06)
(0.002775 0.000178586 5e-06)
(0.002825 0.000178586 5e-06)
(0.002875 0.000178586 5e-06)
(0.002925 0.000178586 5e-06)
(0.002975 0.000178586 5e-06)
(0.003025 0.000178586 5e-06)
(0.003075 0.000178586 5e-06)
(0.003125 0.000178586 5e-06)
(0.003175 0.000178586 5e-06)
(0.003225 0.000178586 5e-06)
(0.003275 0.000178586 5e-06)
(0.003325 0.000178586 5e-06)
(0.003375 0.000178586 5e-06)
(0.003425 0.000178586 5e-06)
(0.003475 0.000178586 5e-06)
(0.003525 0.000178586 5e-06)
(0.003575 0.000178586 5e-06)
(0.003625 0.000178586 5e-06)
(0.003675 0.000178586 5e-06)
(0.003725 0.000178586 5e-06)
(0.003775 0.000178586 5e-06)
(0.003825 0.000178586 5e-06)
(0.003875 0.000178586 5e-06)
(0.003925 0.000178586 5e-06)
(0.003975 0.000178586 5e-06)
(0.004025 0.000178586 5e-06)
(0.004075 0.000178586 5e-06)
(0.004125 0.000178586 5e-06)
(0.004175 0.000178586 5e-06)
(0.004225 0.000178586 5e-06)
(0.004275 0.000178586 5e-06)
(0.004325 0.000178586 5e-06)
(0.004375 0.000178586 5e-06)
(0.004425 0.000178586 5e-06)
(0.004475 0.000178586 5e-06)
(0.004525 0.000178586 5e-06)
(0.004575 0.000178586 5e-06)
(0.004625 0.000178586 5e-06)
(0.004675 0.000178586 5e-06)
(0.004725 0.000178586 5e-06)
(0.004775 0.000178586 5e-06)
(0.004825 0.000178586 5e-06)
(0.004875 0.000178586 5e-06)
(0.004925 0.000178586 5e-06)
(0.004975 0.000178586 5e-06)
(0.005025 0.000178586 5e-06)
(0.005075 0.000178586 5e-06)
(0.005125 0.000178586 5e-06)
(0.005175 0.000178586 5e-06)
(0.005225 0.000178586 5e-06)
(0.005275 0.000178586 5e-06)
(0.005325 0.000178586 5e-06)
(0.005375 0.000178586 5e-06)
(0.005425 0.000178586 5e-06)
(0.005475 0.000178586 5e-06)
(0.005525 0.000178586 5e-06)
(0.005575 0.000178586 5e-06)
(0.005625 0.000178586 5e-06)
(0.005675 0.000178586 5e-06)
(0.005725 0.000178586 5e-06)
(0.005775 0.000178586 5e-06)
(0.005825 0.000178586 5e-06)
(0.005875 0.000178586 5e-06)
(0.005925 0.000178586 5e-06)
(0.005975 0.000178586 5e-06)
(0.006025 0.000178586 5e-06)
(0.006075 0.000178586 5e-06)
(0.006125 0.000178586 5e-06)
(0.006175 0.000178586 5e-06)
(0.006225 0.000178586 5e-06)
(0.006275 0.000178586 5e-06)
(0.006325 0.000178586 5e-06)
(0.006375 0.000178586 5e-06)
(0.006425 0.000178586 5e-06)
(0.006475 0.000178586 5e-06)
(0.006525 0.000178586 5e-06)
(0.006575 0.000178586 5e-06)
(0.006625 0.000178586 5e-06)
(0.006675 0.000178586 5e-06)
(0.006725 0.000178586 5e-06)
(0.006775 0.000178586 5e-06)
(0.006825 0.000178586 5e-06)
(0.006875 0.000178586 5e-06)
(0.006925 0.000178586 5e-06)
(0.006975 0.000178586 5e-06)
(0.007025 0.000178586 5e-06)
(0.007075 0.000178586 5e-06)
(0.007125 0.000178586 5e-06)
(0.007175 0.000178586 5e-06)
(0.007225 0.000178586 5e-06)
(0.007275 0.000178586 5e-06)
(0.007325 0.000178586 5e-06)
(0.007375 0.000178586 5e-06)
(0.007425 0.000178586 5e-06)
(0.007475 0.000178586 5e-06)
(0.007525 0.000178586 5e-06)
(0.007575 0.000178586 5e-06)
(0.007625 0.000178586 5e-06)
(0.007675 0.000178586 5e-06)
(0.007725 0.000178586 5e-06)
(0.007775 0.000178586 5e-06)
(0.007825 0.000178586 5e-06)
(0.007875 0.000178586 5e-06)
(0.007925 0.000178586 5e-06)
(0.007975 0.000178586 5e-06)
(0.008025 0.000178586 5e-06)
(0.008075 0.000178586 5e-06)
(0.008125 0.000178586 5e-06)
(0.008175 0.000178586 5e-06)
(0.008225 0.000178586 5e-06)
(0.008275 0.000178586 5e-06)
(0.008325 0.000178586 5e-06)
(0.008375 0.000178586 5e-06)
(0.008425 0.000178586 5e-06)
(0.008475 0.000178586 5e-06)
(0.008525 0.000178586 5e-06)
(0.008575 0.000178586 5e-06)
(0.008625 0.000178586 5e-06)
(0.008675 0.000178586 5e-06)
(0.008725 0.000178586 5e-06)
(0.008775 0.000178586 5e-06)
(0.008825 0.000178586 5e-06)
(0.008875 0.000178586 5e-06)
(0.008925 0.000178586 5e-06)
(0.008975 0.000178586 5e-06)
(0.009025 0.000178586 5e-06)
(0.009075 0.000178586 5e-06)
(0.009125 0.000178586 5e-06)
(0.009175 0.000178586 5e-06)
(0.009225 0.000178586 5e-06)
(0.009275 0.000178586 5e-06)
(0.009325 0.000178586 5e-06)
(0.009375 0.000178586 5e-06)
(0.009425 0.000178586 5e-06)
(0.009475 0.000178586 5e-06)
(0.009525 0.000178586 5e-06)
(0.009575 0.000178586 5e-06)
(0.009625 0.000178586 5e-06)
(0.009675 0.000178586 5e-06)
(0.009725 0.000178586 5e-06)
(0.009775 0.000178586 5e-06)
(0.009825 0.000178586 5e-06)
(0.009875 0.000178586 5e-06)
(0.009925 0.000178586 5e-06)
(0.009975 0.000178586 5e-06)
(2.5e-05 0.000228586 5e-06)
(7.5e-05 0.000228586 5e-06)
(0.000125 0.000228586 5e-06)
(0.000175 0.000228586 5e-06)
(0.000225 0.000228586 5e-06)
(0.000275 0.000228586 5e-06)
(0.000325 0.000228586 5e-06)
(0.000375 0.000228586 5e-06)
(0.000425 0.000228586 5e-06)
(0.000475 0.000228586 5e-06)