/*--------------------------------*- C++ -*----------------------------------*\
| =========                 |                                                 |
| \\      /  F ield         | OpenFOAM: The Open Source CFD Toolbox           |
|  \\    /   O peration     | Version:  2406                                  |
|   \\  /    A nd           | Website:  www.openfoam.com                      |
|    \\/     M anipulation  |                                                 |
\*---------------------------------------------------------------------------*/
FoamFile
{
    version     2.0;
    format      ascii;
    arch        "LSB;label=32;scalar=64";
    class       volScalarField;
    location    "2000";
    object      p;
}
// * * * * * * * * * * * * * * * * * * * * * * * * * * * * * * * * * * * * * //

dimensions      [0 2 -2 0 0 0 0];

internalField   nonuniform List<scalar> 
6800
(
-0.026308923
-0.0085615789
0.0034412802
0.0074504146
0.0075423435
0.0065150788
0.0052224621
0.0039870309
0.0029728105
0.0022140353
0.0016863139
0.0013531452
0.0011774245
0.0011230892
0.0011563257
0.0012466559
0.0013676084
0.0014971155
0.0016177488
0.0017167992
0.0017861716
0.0018220839
0.0018245822
0.0017969108
0.0017447926
0.0016756806
0.0015980334
0.0015206514
0.0014520935
0.0014001784
0.0013715675
0.0013714264
0.0014031608
0.0014682335
0.0015660691
0.0016940574
0.0018476649
0.00202067
0.0022055043
0.0023936996
0.0025763906
0.0027448554
0.0028910618
0.0030081873
0.0030910156
0.0031362321
0.0031425348
0.0031106173
0.0030430623
0.0029441302
0.0028194729
0.0026758015
0.0025205302
0.0023614106
0.0022061703
0.0020621616
0.0019360335
0.0018334313
0.0017587401
0.0017148852
0.001703195
0.0017233464
0.0017733962
0.0018498961
0.0019481102
0.0020623046
0.0021860709
0.0023126447
0.0024352756
0.0025475996
0.0026439777
0.002719778
0.0027715574
0.002797185
0.0027958631
0.0027680792
0.002715517
0.0026409377
0.0025480202
0.0024411621
0.002325257
0.0022054587
0.0020869397
0.0019746538
0.0018731092
0.0017861654
0.0017168587
0.001667272
0.0016384509
0.0016303748
0.0016419865
0.0016712763
0.0017154221
0.0017709697
0.0018340361
0.0019005153
0.0019662911
0.0020274516
0.0020804855
0.0021224357
0.0021510187
0.0021646997
0.0021627162
0.002145072
0.0021124882
0.0020663399
0.0020085696
0.0019415761
0.0018680855
0.0017910142
0.0017133271
0.0016378979
0.0015673777
0.0015040759
0.0014498613
0.0014060864
0.0013735391
0.0013524251
0.0013423799
0.0013425108
0.0013514645
0.0013675171
0.0013886792
0.0014128101
0.0014377295
0.0014613259
0.0014816581
0.0014970427
0.0015061217
0.0015079109
0.0015018241
0.0014876769
0.0014656726
0.0014363731
0.0014006547
0.0013596518
0.0013146904
0.0012672177
0.0012187277
0.0011706894
0.0011244777
0.0010813123
0.0010422065
0.0010079269
0.00097896825
0.00095554169
0.00093757815
0.0009247455
0.00091647835
0.000912018
0.00091046047
0.00091080876
0.00091202751
0.00091309569
0.00091305606
0.00091105785
0.00090639215
0.0008985176
0.000887077
0.0008719033
0.00085301693
0.0008306137
0.00080504586
0.00077679621
0.00074644822
0.00071465231
0.00068209161
0.00064944712
0.00061736562
0.00058642994
0.00055713479
0.00052986707
0.0005048934
0.00048235321
0.00046225945
0.00044450446
0.00042887258
0.00041505629
0.00040267721
0.00039130815
0.00038049756
0.00036979245
0.00035876122
0.00034701286
0.00033421407
0.00032010138
0.00030449021
0.00028727845
0.00026844684
0.0002480543
0.00022623094
0.00020316669
0.0001790998
0.00015429976
0.00012906169
0.00010366076
7.8458654e-05
5.3462974e-05
2.9960405e-05
4.2672884e-06
-0.031133328
-0.0093469174
0.0033680656
0.0070203799
0.0071715397
0.0063256947
0.0051599867
0.0039937466
0.0030177966
0.002279925
0.001761301
0.0014298637
0.0012521465
0.0011941441
0.0012230234
0.0013088557
0.0014255249
0.0015511725
0.0016684647
0.0017647014
0.0018317345
0.001865687
0.0018664871
0.0018372553
0.0017835978
0.001712868
0.0016334471
0.001554084
0.0014833122
0.0014289501
0.0013976822
0.0013947174
0.001423522
0.001485634
0.0015805632
0.0017057905
0.0018568745
0.0020276825
0.0022107258
0.0023975977
0.0025794712
0.0027476347
0.002894038
0.0030118118
0.0030956701
0.0031422039
0.0031500138
0.003119686
0.0030536965
0.0029562076
0.0028327847
0.0026900683
0.0025354191
0.0023765548
0.0022211873
0.002076673
0.001949683
0.0018458999
0.0017697619
0.0017242597
0.0017107952
0.0017291262
0.0017773934
0.0018522302
0.0019489766
0.0020619649
0.002184837
0.002310862
0.0024333025
0.0025457877
0.0026426526
0.0027192257
0.0027720112
0.0027988169
0.0027987789
0.0027723138
0.0027210366
0.0026476425
0.002555753
0.0024497181
0.0023343952
0.0022149142
0.0020964374
0.001983921
0.0018818886
0.001794227
0.0017240098
0.0016733658
0.0016433928
0.0016341256
0.0016445638
0.0016727522
0.0017159184
0.0017706508
0.001833098
0.0018991759
0.0019647775
0.0020259881
0.0020792825
0.0021216794
0.0021508644
0.002165266
0.0021640812
0.0021472703
0.0021155126
0.0020701418
0.0020130641
0.0019466469
0.0018735924
0.0017968003
0.0017192269
0.0016437457
0.001573015
0.0015093592
0.0014546681
0.0014103204
0.0013771343
0.0013553473
0.0013446279
0.0013441151
0.0013524844
0.0013680369
0.0013888029
0.0014126547
0.0014374196
0.0014609865
0.0014814084
0.0014969911
0.0015063607
0.0015085137
0.0015028423
0.0014891386
0.0014675824
0.0014387132
0.0014033866
0.0013627191
0.0013180229
0.0012707346
0.0012223428
0.0011743148
0.0011280283
0.00108471
0.0010453831
0.0010108275
0.00098155302
0.00095778717
0.00093947767
0.00092630876
0.00091773008
0.00091299617
0.00091121362
0.00091139328
0.00091250423
0.00091352694
0.0009135023
0.00091157507
0.00090702914
0.00089931427
0.00088806262
0.000873096
0.00085442311
0.00083222867
0.00080685442
0.00077877421
0.00074856391
0.00071686862
0.0006843679
0.00065174163
0.00061963724
0.00058864051
0.00055925044
0.00053186001
0.00050674259
0.00048404541
0.0004637891
0.00044587391
0.00043009118
0.00041613998
0.00040364698
0.00039218916
0.00038131726
0.00037057957
0.00035954387
0.00034781765
0.00033506448
0.00032101722
0.00030548652
0.00028836542
0.00026962926
0.00024933205
0.00022759888
0.00020461566
0.0001806169
0.0001558694
0.00013066679
0.0001052807
8.0078742e-05
5.502325e-05
3.149784e-05
5.1374092e-06
-0.01758695
-0.0045513776
0.0035094189
0.0057275025
0.0058467517
0.0053802656
0.0045973671
0.0037067862
0.0029111594
0.0022939811
0.0018555094
0.0015736933
0.0014231983
0.0013766041
0.0014060184
0.0014852947
0.0015912154
0.0017040317
0.0018078482
0.0018908801
0.001945508
0.0019681075
0.0019586716
0.0019202664
0.0018583757
0.0017802001
0.0016939667
0.0016082878
0.0015315907
0.0014716251
0.0014350455
0.0014270672
0.0014511939
0.0015090237
0.001600141
0.0017221051
0.0018705493
0.0020393958
0.0022211836
0.0024074969
0.0025894684
0.0027583205
0.0029059108
0.0030252459
0.0031108998
0.0031593083
0.0031689202
0.0031401938
0.0030754978
0.0029789073
0.002855924
0.0027131506
0.0025579362
0.002398012
0.0022411281
0.002094702
0.001965486
0.0018592568
0.0017805595
0.001732499
0.0017165866
0.001732688
0.0017790448
0.0018523684
0.0019480573
0.0020604828
0.0021832984
0.0023097553
0.0024330702
0.0025468015
0.0026452002
0.0027235058
0.0027781273
0.0028067797
0.0028085068
0.0027836277
0.0027336751
0.0026612836
0.0025700304
0.0024642397
0.0023487627
0.0022287418
0.0021093704
0.0019956516
0.0018921703
0.0018028847
0.0017309461
0.0016785645
0.0016469177
0.0016361148
0.0016452222
0.0016723379
0.0017147299
0.0017690105
0.0018313352
0.0018976122
0.0019637076
0.0020256664
0.0020799142
0.0021234109
0.0021537832
0.0021693999
0.0021693986
0.0021536811
0.0021228721
0.0020782638
0.0020217311
0.0019556217
0.0018826298
0.0018056593
0.0017276821
0.0016515974
0.0015800981
0.0015155498
0.0014598882
0.0014145396
0.0013803698
0.0013576609
0.0013461214
0.0013449238
0.0013527687
0.0013679743
0.0013885771
0.001412447
0.001437401
0.001461309
0.0014821986
0.0014983462
0.0015083452
0.0015111582
0.0015061432
0.0014930589
0.0014720555
0.0014436481
0.0014086733
0.0013682347
0.0013236378
0.0012763193
0.001227774
0.001179481
0.0011328349
0.0010890828
0.001049271
0.0010142041
0.00098441655
0.00096015948
0.00094140204
0.0009278467
0.00091895756
0.00091399908
0.0009120832
0.00091222135
0.00091337882
0.00091452813
0.00091469893
0.00091302182
0.00090876488
0.00090136081
0.00089042479
0.00087576212
0.00085736667
0.00083541022
0.00081022431
0.00078227536
0.00075213519
0.00072044776
0.00068789479
0.00065516094
0.00062290103
0.00059171001
0.00056209763
0.00053446821
0.00050910693
0.0004861722
0.00046569515
0.00044758497
0.00043164041
0.00041756575
0.00040499093
0.00039349381
0.00038262417
0.00037192712
0.0003609659
0.0003493418
0.00033671153
0.00032280028
0.00030741105
0.00029042925
0.00027182341
0.00025164133
0.00023000329
0.00020709132
0.00018313782
0.00015840788
0.00013319644
0.0001077681
8.2507366e-05
5.7270919e-05
3.3704429e-05
5.4086826e-06
-0.0091242493
-0.0053964636
-0.0011609011
0.0012655337
0.0022317216
0.0024960329
0.0024137012
0.0021513519
0.0018488507
0.0015962741
0.0014253669
0.0013382766
0.0013267891
0.0013770381
0.0014715288
0.0015918176
0.0017205935
0.0018428369
0.0019464929
0.0020228901
0.0020669101
0.0020768985
0.0020543473
0.002003404
0.001930273
0.0018425748
0.0017487187
0.0016573222
0.0015766955
0.0015143929
0.0014768296
0.0014689607
0.0014940254
0.0015533635
0.0016463147
0.0017702132
0.0019204891
0.0020908852
0.0022737847
0.0024606404
0.0026424794
0.0028104516
0.0029563817
0.0030732806
0.0031557621
0.0032003384
0.003205562
0.003172032
0.0031022788
0.0030005493
0.0028725184
0.0027249557
0.0025653648
0.0024016149
0.0022415729
0.0020927453
0.0019619395
0.0018549592
0.0017763368
0.0017291262
0.0017147625
0.0017330014
0.001781951
0.0018581887
0.0019569492
0.0020724282
0.002198133
0.0023271956
0.0024527303
0.0025682081
0.0026678115
0.0027467456
0.0028014198
0.0028295431
0.0028301618
0.0028036405
0.0027515896
0.002676742
0.0025827872
0.00247417
0.0023558659
0.0022331414
0.0021113049
0.0019954622
0.0018902831
0.0017997851
0.0017271556
0.0016746116
0.00164331
0.0016333196
0.0016436395
0.0016722885
0.0017164427
0.0017726112
0.0018368495
0.0019049772
0.0019727809
0.0020362306
0.002091693
0.0021360868
0.0021670161
0.0021828385
0.0021826836
0.0021664619
0.0021348283
0.0020891214
0.0020312729
0.0019636957
0.0018891543
0.0018106249
0.0017311504
0.0016536961
0.0015810124
0.0015155114
0.001459162
0.0014134092
0.0013791221
0.0013565726
0.0013454454
0.0013448778
0.0013535281
0.0013696645
0.0013912719
0.0014161665
0.0014421141
0.0014669412
0.0014886381
0.0015054491
0.0015159431
0.001519065
0.0015141642
0.001501001
0.0014797366
0.0014509047
0.0014153673
0.0013742584
0.0013289182
0.0012808198
0.0012314948
0.0011824577
0.0011351352
0.0010908018
0.0010505254
0.0010151253
0.00098514378
0.00096083238
0.000942154
0.00092879879
0.00092021337
0.00091564088
0.00091416922
0.00091478449
0.00091642657
0.00091804374
0.0009186435
0.00091733749
0.00091337842
0.00090618792
0.00089537447
0.0008807413
0.00086228457
0.00084018252
0.00081477668
0.0007865466
0.00075607929
0.00072403553
0.00069111427
0.00065801723
0.00062541509
0.00059391693
0.00056404412
0.00053620984
0.00051070484
0.00048769
0.00046719559
0.00044912712
0.00043327694
0.00041934092
0.00040693886
0.00039563761
0.00038497538
0.00037448602
0.00036372203
0.00035227525
0.00033979433
0.00032599832
0.00031068599
0.0002937407
0.00027513085
0.00025490622
0.00023319065
0.00021017113
0.00018608648
0.00016120592
0.00013583738
0.00011021928
8.4840367e-05
5.9141884e-05
3.6255345e-05
3.0521252e-06
-0.0064021618
-0.0050043206
-0.0023127202
-0.00021143885
0.00075821805
0.0010868026
0.0011695589
0.001139939
0.0010719961
0.0010328234
0.0010555106
0.0011410295
0.0012763661
0.0014443049
0.0016264142
0.0018051342
0.0019656683
0.0020969619
0.0021919008
0.0022471385
0.0022627289
0.002241612
0.002189003
0.0021117547
0.0020177493
0.0019153588
0.0018129864
0.0017186835
0.0016398272
0.0015828395
0.0015529369
0.0015539087
0.0015879298
0.0016554241
0.0017549938
0.0018834303
0.0020358188
0.0022057456
0.002385609
0.0025670239
0.0027412939
0.0028999286
0.0030351641
0.0031404446
0.003210822
0.0032432345
0.0032366402
0.003192013
0.0031122146
0.0030017695
0.0028665718
0.0027135465
0.0025502885
0.0023846907
0.0022245736
0.0020773271
0.0019495757
0.0018468778
0.0017734701
0.0017320778
0.0017237963
0.00174805
0.0018026435
0.001883895
0.0019868454
0.0021055469
0.0022333959
0.0023634926
0.0024889994
0.002603483
0.0027012459
0.0027775981
0.0028290539
0.0028534442
0.0028499538
0.0028190996
0.0027626542
0.0026835178
0.0025855454
0.0024733396
0.0023520185
0.0022269663
0.0021035772
0.0019870036
0.0018819162
0.0017922907
0.0017212298
0.00167083
0.0016421037
0.0016349575
0.00164823
0.001679786
0.0017266609
0.0017852455
0.0018514975
0.0019211669
0.0019900108
0.0020540015
0.0021095171
0.0021535015
0.0021835865
0.0021981645
0.002196423
0.0021783413
0.0021446552
0.0020967919
0.0020367761
0.0019671142
0.0018906605
0.0018104723
0.0017296603
0.0016512399
0.0015779912
0.0015123338
0.0014562219
0.0014110658
0.0013776828
0.0013562802
0.0013464698
0.0013473139
0.0013573966
0.0013749173
0.0013977996
0.0014238082
0.0014506681
0.0014761767
0.0014983074
0.0015152982
0.0015257222
0.001528537
0.001523113
0.0015092399
0.0014871157
0.0014573159
0.0014207484
0.001378595
0.0013322425
0.0012832086
0.001233064
0.0011833553
0.0011355328
0.0010908849
0.0010504836
0.0010151423
0.00098538854
0.00096145188
0.00094326724
0.00093049294
0.00092254183
0.00091862311
0.00091779222
0.00091900564
0.00092117752
0.00092323503
0.00092416981
0.00092308311
0.00091922281
0.00091201117
0.0009010625
0.00088619058
0.00086740624
0.00084490577
0.00081905126
0.0007903442
0.00075939403
0.00072688318
0.00069353058
0.00066005524
0.00062714173
0.00059540902
0.00056538417
0.00053748166
0.00051198944
0.00048906182
0.00046871937
0.00045085539
0.00043524831
0.00042157914
0.00040945272
0.00039842142
0.00038801019
0.00037774126
0.00036715767
0.00035584418
0.00034344493
0.00032967707
0.0003143401
0.00029732045
0.00027859186
0.00025821116
0.00023631081
0.00021308692
0.00018878915
0.00016369265
0.00013812701
0.00011229031
8.6850095e-05
6.0618533e-05
3.8978931e-05
-6.5394209e-07
-0.0053572528
-0.004672141
-0.0032125032
-0.0018869514
-0.0011382384
-0.00075376949
-0.00048825836
-0.00026371148
-5.0611908e-05
0.00018673186
0.00046723871
0.00078439711
0.0011190428
0.0014497475
0.0017563291
0.0020216105
0.0022331323
0.002384052
0.0024730316
0.0025035112
0.0024826784
0.0024202828
0.0023274382
0.0022155635
0.0020955682
0.0019773199
0.0018693619
0.0017788114
0.0017113596
0.001671306
0.0016615805
0.0016837351
0.0017379136
0.0018228211
0.0019357184
0.0020724639
0.002227619
0.0023946327
0.0025661193
0.0027342131
0.0028909803
0.003028872
0.0031411773
0.0032224363
0.0032687877
0.0032781965
0.0032505408
0.0031875686
0.0030927358
0.0029709636
0.0028283425
0.0026718037
0.0025087742
0.0023468262
0.0021933291
0.0020551165
0.0019381771
0.001847383
0.0017862692
0.0017568783
0.0017596758
0.0017935456
0.0018558644
0.0019426584
0.0020488223
0.0021683969
0.0022948937
0.0024216296
0.002542065
0.0026501239
0.0027404952
0.0028088748
0.0028521405
0.0028684566
0.0028573117
0.0028194927
0.0027570036
0.0026729328
0.0025712775
0.0024567336
0.0023344584
0.0022098189
0.0020881334
0.0019744185
0.0018731549
0.0017880819
0.0017220315
0.0016768133
0.0016531537
0.0016506935
0.0016680436
0.00170289
0.0017521497
0.001812154
0.0018788577
0.0019480568
0.0020155967
0.002077572
0.0021305042
0.00217149
0.0021983125
0.0022095074
0.0022043978
0.0021830901
0.0021464362
0.0020959659
0.0020337911
0.0019624865
0.0018849536
0.0018042732
0.0017235532
0.0016457788
0.001573674
0.0015095776
0.0014553441
0.0014122703
0.0013810542
0.0013617855
0.0013539677
0.0013565695
0.0013681014
0.001386712
0.0014102968
0.0014366148
0.0014634045
0.0014884936
0.001509899
0.0015259112
0.0015351612
0.0015366673
0.0015298606
0.0015145913
0.0014911141
0.0014600573
0.0014223757
0.0013792903
0.0013322186
0.0012826987
0.001232311
0.0011826002
0.0011350031
0.0010907842
0.0010509823
0.0010163708
0.00098743224
0.00096434977
0.00094701267
0.00093503717
0.00092779956
0.00092447958
0.00092411122
0.00092563784
0.00092796857
0.0009300331
0.00093083216
0.00092948159
0.00092524823
0.00091757649
0.00090610489
0.00089067249
0.00087131545
0.00084825449
0.00082187434
0.0007926966
0.00076134742
0.00072852204
0.00069494774
0.00066134722
0.00062840399
0.0005967315
0.00056684717
0.00053915252
0.00051391997
0.00049128675
0.0004712557
0.00045370279
0.00043839033
0.00042498514
0.00041308035
0.00040221947
0.00039192159
0.00038170616
0.0003711163
0.00035973952
0.00034722504
0.00033329705
0.00031776357
0.00030052068
0.00028155232
0.00026092575
0.00023878377
0.00021533179
0.00019082966
0.00016555585
0.00013986448
0.00011390076
8.8561867e-05
6.1891416e-05
4.1989021e-05
-4.8399614e-06
-0.0051679645
-0.0048283417
-0.0040496017
-0.0032144206
-0.0026159994
-0.0022083654
-0.0018493735
-0.0014709175
-0.0010530654
-0.00058513424
-7.0146433e-05
0.0004706262
0.0010067474
0.0015079447
0.0019482373
0.0023078497
0.0025746996
0.0027450289
0.0028229152
0.0028189693
0.0027485486
0.0026297105
0.0024811717
0.0023205667
0.0021632066
0.0020214074
0.0019043217
0.0018181282
0.0017664271
0.0017506932
0.0017706872
0.001824771
0.0019101218
0.0020228741
0.0021582192
0.0023105024
0.0024733323
0.0026397426
0.0028024434
0.0029541242
0.0030878029
0.0031972198
0.0032771981
0.0033239587
0.0033353985
0.0033112186
0.0032529044
0.0031635872
0.0030477863
0.0029111145
0.0027599646
0.0026011963
0.0024418311
0.0022887561
0.0021484395
0.0020266617
0.0019282701
0.0018569702
0.0018151644
0.0018038497
0.0018225819
0.0018695105
0.001941481
0.0020342047
0.0021424817
0.0022604671
0.0023819681
0.0025007517
0.0026108465
0.0027068251
0.002784057
0.0028389112
0.0028689016
0.0028727692
0.0028505021
0.0028032967
0.0027334662
0.0026443029
0.0025399011
0.0024249478
0.0023044908
0.0021836925
0.0020675816
0.0019608131
0.0018674508
0.0017907823
0.001733178
0.0016960007
0.0016795707
0.0016831864
0.001705197
0.0017431219
0.0017938072
0.0018536098
0.0019185953
0.0019847406
0.0020481278
0.0021051248
0.0021525426
0.0021877655
0.0022088472
0.0022145707
0.0022044743
0.0021788439
0.0021386724
0.0020855898
0.002021767
0.001949796
0.0018725544
0.0017930591
0.0017143169
0.0016391788
0.0015702071
0.0015095602
0.0014589021
0.0014193403
0.0013913949
0.0013749991
0.0013695298
0.001373865
0.0013864634
0.0014054608
0.0014287772
0.0014542281
0.0014796342
0.0015029248
0.0015222298
0.0015359574
0.0015428545
0.0015420484
0.0015330688
0.0015158507
0.0014907183
0.0014583527
0.0014197434
0.0013761285
0.0013289247
0.0012796522
0.0012298573
0.0011810366
0.0011345667
0.0010916434
0.0010532317
0.0010200297
0.00099244801
0.00097060399
0.00095433127
0.00094320284
0.00093656577
0.00093358527
0.00093329515
0.00093465176
0.00093658858
0.00093806867
0.00093813262
0.00093594004
0.00093080301
0.00092221039
0.0009098425
0.00089357593
0.00087347893
0.00084979797
0.00082293653
0.00079342765
0.00076190157
0.00072905044
0.00069559172
0.0006622323
0.00062963489
0.00059838825
0.00056898266
0.00054179145
0.00051705928
0.00049489745
0.00047528592
0.00045808181
0.00044303336
0.00042979846
0.00041796653
0.00040708241
0.00039667103
0.00038626155
0.00037540988
0.00036371849
0.00035085283
0.00033655378
0.00032064567
0.00030303983
0.00028373388
0.00026280663
0.00024041029
0.00021675682
0.00019211232
0.00016675321
0.00014105492
0.00011510122
9.0031237e-05
6.3077353e-05
4.5134293e-05
-8.807066e-06
-0.0054187817
-0.0052550761
-0.004862173
-0.0044046557
-0.0040173598
-0.0036688312
-0.0032661058
-0.002758589
-0.0021400193
-0.0014258903
-0.00064776059
0.00015029695
0.00092071923
0.0016206001
0.0022157877
0.0026827511
0.0030096483
0.0031964094
0.0032536691
0.0032007641
0.0030630619
0.002868835
0.0026461392
0.0024202242
0.0022117917
0.0020361964
0.0019034429
0.0018187332
0.0017833268
0.0017954718
0.0018512498
0.0019452489
0.0020710642
0.0022216416
0.0023894983
0.002566888
0.0027459197
0.0029187172
0.0030776719
0.0032156884
0.0033265153
0.0034051392
0.0034480486
0.0034534523
0.0034215202
0.0033543581
0.0032558066
0.0031311509
0.0029866474
0.0028291263
0.0026656169
0.0025030387
0.00234795
0.0022063361
0.0020834301
0.00198355
0.0019099604
0.0018647616
0.0018488139
0.0018617071
0.0019017859
0.0019662268
0.0020511672
0.0021518921
0.0022630554
0.0023789311
0.0024936878
0.0026016647
0.0026976337
0.0027770376
0.0028361874
0.0028724126
0.0028841598
0.0028710337
0.0028337772
0.0027742014
0.0026950701
0.0025999498
0.0024930286
0.0023789136
0.0022624126
0.0021483079
0.0020411323
0.0019449581
0.0018632109
0.0017985189
0.0017526057
0.0017262339
0.0017192003
0.0017303813
0.0017578248
0.0017988791
0.001850352
0.0019086871
0.0019701492
0.002031007
0.0020877056
0.0021370211
0.0021761935
0.0022030314
0.0022159874
0.0022142023
0.0021975182
0.0021664623
0.0021222013
0.0020664691
0.0020014704
0.0019297635
0.0018541294
0.0017774318
0.0017024757
0.0016318726
0.0015679193
0.0015124962
0.0014669914
0.0014322525
0.001408569
0.0013956846
0.0013928362
0.0013988166
0.0014120557
0.0014307151
0.00145279
0.0014762123
0.0014989514
0.0015191064
0.0015349879
0.001545185
0.0015486171
0.0015445679
0.0015327014
0.001513061
0.0014860509
0.0014524019
0.0014131238
0.0013694457
0.0013227492
0.0012744948
0.0012261489
0.001179112
0.0011346541
0.0010938582
0.0010575767
0.0010264008
0.0010006451
0.00098034629
0.00096527628
0.00095496737
0.00094874812
0.00094578689
0.00094514069
0.00094580646
0.00094677221
0.00094706552
0.00094579741
0.0009421998
0.00093565518
0.00092571777
0.00091212545
0.00089480258
0.00087385394
0.00084955052
0.00082230808
0.00079265993
0.00076122538
0.00072867553
0.00069569825
0.00066296404
0.00063109449
0.00060063467
0.00057203084
0.00054561412
0.0005215908
0.0005000393
0.0004809136
0.00046405263
0.00044919465
0.00043599582
0.00042405151
0.00041291944
0.00040214311
0.00039127462
0.00037989566
0.00036763583
0.00035418768
0.00033931774
0.00032287348
0.000304786
0.00028506858
0.00026381129
0.00024117316
0.00021736821
0.00019266254
0.00016732381
0.00014173889
0.00011592848
9.1237677e-05
6.4175118e-05
4.8034426e-05
-1.1871868e-05
-0.0058791115
-0.0058185106
-0.0056995519
-0.0056184849
-0.0055343507
-0.0053246397
-0.0049084726
-0.0042655715
-0.0034153467
-0.0024065847
-0.0013084056
-0.00019678411
0.00085742123
0.001795407
0.0025733527
0.0031635508
0.0035548484
0.0037520757
0.0037742908
0.0036519595
0.0034232687
0.003129509
0.0028103935
0.002500365
0.0022263083
0.0020067562
0.0018522737
0.0017665647
0.0017479749
0.0017910114
0.0018876479
0.0020283214
0.0022026938
0.0024001748
0.0026102719
0.002822775
0.0030278162
0.0032161109
0.0033792413
0.0035097842
0.0036017352
0.0036511204
0.0036559889
0.0036165364
0.0035354941
0.003417792
0.0032702243
0.0031010215
0.0029188944
0.0027325408
0.0025501287
0.0023789696
0.0022253221
0.0020942788
0.0019897159
0.0019142717
0.0018693441
0.0018551078
0.0018705502
0.0019135287
0.0019808732
0.0020685047
0.0021715971
0.0022847905
0.0024024027
0.0025186743
0.0026280312
0.0027253313
0.002806098
0.0028667191
0.002904597
0.0029182373
0.0029072916
0.0028725316
0.0028157648
0.0027397091
0.0026478259
0.0025441414
0.0024330487
0.0023191117
0.0022068642
0.0021006146
0.0020042613
0.0019211257
0.001853812
0.0018041041
0.0017729031
0.0017602127
0.0017651688
0.0017861139
0.0018207084
0.0018660703
0.0019189353
0.0019758279
0.0020332317
0.0020877528
0.0021362683
0.0021760534
0.0022048844
0.0022211147
0.002223722
0.0022123277
0.0021871904
0.0021491732
0.0020996873
0.0020406143
0.0019742073
0.0019029776
0.0018295705
0.0017566357
0.0016867006
0.0016220513
0.0015646294
0.0015159496
0.0014770422
0.0014484239
0.0014300955
0.001421567
0.0014219068
0.0014298089
0.0014436758
0.0014617101
0.0014820092
0.0015026597
0.0015218257
0.0015378289
0.0015492164
0.0015548149
0.0015537707
0.0015455731
0.0015300625
0.0015074227
0.0014781588
0.0014430609
0.001403156
0.0013596512
0.0013138689
0.001267179
0.0012209311
0.0011763899
0.0011346773
0.0010967246
0.0010632356
0.0010346638
0.0010112031
0.00099279214
0.00097913098
0.00096970864
0.0009638395
0.00096070581
0.00095940395
0.00095899205
0.00095853637
0.00095715461
0.00095405438
0.00094856529
0.0009401637
0.00092848955
0.00091335472
0.00089474319
0.00087280314
0.00084783184
0.00082025415
0.000790596
0.0007594542
0.00072746424
0.00069526769
0.00066348087
0.00063266631
0.00060330829
0.00057579357
0.00055039791
0.00052727889
0.00050647492
0.00048791017
0.00047140483
0.00045668979
0.00044342479
0.00043121891
0.00041965226
0.00040829771
0.00039674171
0.00038460322
0.00037154995
0.00035731141
0.0003416882
0.00032455753
0.00030587473
0.00028567106
0.00026404783
0.00024116874
0.00021724575
0.00019253849
0.00016729947
0.00014191216
0.00011634121
9.2055557e-05
6.5063216e-05
5.0193201e-05
-1.342706e-05
-0.0064123788
-0.0064767953
-0.0064974505
-0.0066577351
-0.0068400246
-0.0068197677
-0.0064673845
-0.0057410911
-0.0046703
-0.0033463037
-0.0018909916
-0.00042489238
0.00094932354
0.0021521096
0.0031276515
0.003843262
0.0042888465
0.0044754567
0.0044326296
0.0042047497
0.0038465784
0.0034163202
0.0029684321
0.0025484837
0.0021902359
0.0019150493
0.0017330752
0.0016452646
0.0016458401
0.001724575
0.0018685881
0.0020636769
0.0022952772
0.002548995
0.0028111327
0.0030688753
0.003310063
0.0035236186
0.0036999805
0.0038308473
0.0039100616
0.0039344299
0.0039030197
0.0038177068
0.0036837618
0.0035091874
0.0033045472
0.0030818288
0.0028527446
0.002628517
0.002418959
0.0022321789
0.0020744316
0.0019500965
0.0018617661
0.0018103771
0.0017953602
0.0018147975
0.0018655871
0.0019436028
0.0020439
0.0021608605
0.0022884132
0.002420283
0.0025501733
0.002672034
0.0027803067
0.0028701578
0.0029377046
0.0029801883
0.0029960905
0.0029851591
0.0029483882
0.0028879427
0.002806995
0.0027095133
0.0025999903
0.002483223
0.0023640635
0.0022472219
0.0021370728
0.0020374948
0.0019517325
0.0018822839
0.0018308202
0.0017981424
0.0017841757
0.0017880048
0.0018079469
0.0018416591
0.0018862736
0.0019385506
0.0019950434
0.0020522649
0.0021068477
0.0021556912
0.0021960886
0.0022258293
0.0022432732
0.0022473959
0.0022378041
0.0022147229
0.0021789593
0.0021318449
0.002075159
0.0020110362
0.00194186
0.0018701482
0.0017984347
0.0017291525
0.001664523
0.0016064593
0.0015564853
0.0015156784
0.0014846358
0.0014634672
0.0014518124
0.0014488827
0.0014535201
0.0014642732
0.0014794812
0.0014973631
0.0015161074
0.001533956
0.0015492816
0.0015606532
0.0015668897
0.0015670991
0.0015607038
0.0015474511
0.0015274092
0.0015009506
0.0014687228
0.0014316077
0.0013906728
0.0013471143
0.0013021964
0.0012571891
0.0012133071
0.0011716542
0.0011331747
0.0010986152
0.0010684977
0.0010431057
0.0010224828
0.0010064436
0.00099459512
0.00098636747
0.00098105079
0.00097783702
0.00097586344
0.00097425616
0.00097217126
0.00096883218
0.00096356175
0.00095580789
0.00094516232
0.00093137184
0.00091434201
0.0008941336
0.00087095203
0.00084513074
0.00081710931
0.00078740753
0.00075659682
0.00072527041
0.00069401385
0.00066337715
0.00063385018
0.00060584211
0.000579666
0.00055552894
0.00053352794
0.00051365153
0.00049578652
0.00047972937
0.00046520123
0.00045186566
0.00043934805
0.00042725563
0.00041519717
0.00040280137
0.00038973319
0.00037570758
0.0003605
0.0003439536
0.00032598272
0.00030657295
0.00028577788
0.00026371258
0.00024054577
0.00021648592
0.00019178165
0.00016666633
0.00014150322
0.00011621645
9.2283992e-05
6.5542109e-05
5.1144598e-05
-1.3059531e-05
-0.0067061994
-0.0071847819
-0.0080118436
-0.008858106
-0.0093453199
-0.0093918412
-0.0089567445
-0.0079781339
-0.0064960283
-0.0046672306
-0.0026869909
-0.00072985063
0.0010683675
0.0026101158
0.0038312895
0.0046970906
0.0052007893
0.0053623458
0.0052256749
0.0048535663
0.0043231938
0.0037152768
0.0031028591
0.0025450028
0.002083085
0.0017407217
0.0015264653
0.0014368904
0.0014606485
0.0015816065
0.0017810398
0.0020394047
0.0023375173
0.0026571162
0.0029812131
0.0032941896
0.003581699
0.0038309027
0.0040306579
0.0041715274
0.0042468235
0.0042530381
0.0041898114
0.0040606782
0.0038732577
0.0036386085
0.0033712247
0.0030871804
0.0028020304
0.0025302161
0.0022837285
0.002072025
0.0019018279
0.0017771568
0.0016996068
0.0016685825
0.0016816102
0.0017346546
0.0018224136
0.0019386192
0.002076327
0.0022281262
0.0023864644
0.0025438774
0.0026931476
0.002827676
0.0029416252
0.0030301613
0.0030896975
0.0031180453
0.003114529
0.0030799468
0.0030165902
0.0029281176
0.0028192854
0.0026955854
0.0025628803
0.0024271454
0.0022940665
0.0021688548
0.0020560144
0.0019592141
0.0018811889
0.0018236811
0.0017874285
0.0017721909
0.0017768137
0.001799326
0.0018370664
0.0018868345
0.0019450559
0.0020079557
0.0020717312
0.0021327187
0.0021875472
0.0022332747
0.0022674999
0.002288445
0.0022950092
0.0022867879
0.0022640572
0.002227727
0.0021792707
0.0021206326
0.0020541213
0.0019822898
0.0019078078
0.0018333359
0.0017614059
0.001694311
0.0016340113
0.0015820591
0.0015395452
0.0015070698
0.0014847386
0.0014721824
0.0014685999
0.0014728182
0.0014833686
0.0014985716
0.0015166266
0.0015357014
0.0015540177
0.0015699287
0.0015819853
0.0015889895
0.0015900345
0.0015845277
0.0015722012
0.0015531056
0.0015275926
0.0014962843
0.0014600333
0.0014198738
0.0013769678
0.0013325461
0.0012878493
0.0012440696
0.0012022973
0.0011634737
0.0011283535
0.0010974781
0.0010711603
0.0010494815
0.0010323002
0.0010192715
0.0010098748
0.0010034489
0.00099923141
0.00099640016
0.00099411523
0.00099155874
0.00098797109
0.00098268234
0.00097513757
0.00096491553
0.00095174043
0.00093548643
0.00091617548
0.00089396851
0.00086915094
0.00084211323
0.00081332753
0.00078332156
0.00075265107
0.00072187227
0.00069151536
0.00066206072
0.0006339185
0.00060741284
0.00058277101
0.00056011795
0.00053947613
0.00052077036
0.00050383719
0.00048843787
0.00047427422
0.00046100631
0.00044827099
0.00043570037
0.00042293935
0.00040966146
0.00039558239
0.00038047071
0.00036415557
0.0003465311
0.00032755752
0.00030725914
0.00028571957
0.00026307413
0.00023950138
0.00021520931
0.00019043531
0.00016539389
0.00014041361
0.00011539999
9.1715116e-05
6.5399693e-05
5.0585308e-05
-1.065707e-05
-0.0070944823