/*--------------------------------*- C++ -*----------------------------------*\
| =========                 |                                                 |
| \\      /  F ield         | OpenFOAM: The Open Source CFD Toolbox           |
|  \\    /   O peration     | Version:  2406                                  |
|   \\  /    A nd           | Website:  www.openfoam.com                      |
|    \\/     M anipulation  |                                                 |
\*---------------------------------------------------------------------------*/
FoamFile
{
    version     2.0;
    format      ascii;
    arch        "LSB;label=32;scalar=64";
    class       surfaceScalarField;
    location    "2000";
    object      phi;
}
// * * * * * * * * * * * * * * * * * * * * * * * * * * * * * * * * * * * * * //

dimensions      [0 3 -1 0 0 0 0];

oriented        oriented;

internalField   nonuniform List<scalar> 
13366
(
-6.5650683e-12
6.565054e-12
1.0514497e-12
-7.6165337e-12
1.0061312e-11
-9.0098781e-12
1.5521803e-11
-5.4605063e-12
1.8025806e-11
-2.5040168e-12
1.8760225e-11
-7.3443167e-13
1.853538e-11
2.2483231e-13
1.7834934e-11
7.0043447e-13
1.6937627e-11
8.9729664e-13
1.5995508e-11
9.4210865e-13
1.5087045e-11
9.0845307e-13
1.4250811e-11
8.3622449e-13
1.3504276e-11
7.4652655e-13
1.2852572e-11
6.5169565e-13
1.229267e-11
5.5989456e-13
1.1816048e-11
4.7661485e-13
1.1410763e-11
4.0527792e-13
1.1063102e-11
3.4765523e-13
1.0758918e-11
3.0417863e-13
1.0484729e-11
2.7418357e-13
1.0228582e-11
2.5614333e-13
9.9806549e-12
2.4792285e-13
9.7336101e-12
2.4704123e-13
9.4826855e-12
2.5092151e-13
9.2255838e-12
2.5709854e-13
8.9622089e-12
2.6337213e-13
8.6943088e-12
2.6789702e-13
8.425082e-12
2.6922389e-13
8.1587777e-12
2.6630089e-13
7.9003143e-12
2.5846011e-13
7.6549163e-12
2.4539422e-13
7.4277724e-12
2.2714018e-13
7.2237072e-12
2.0406107e-13
7.0468711e-12
1.7683203e-13
6.9004521e-12
1.4641467e-13
6.7864244e-12
1.1402363e-13
6.705353e-12
8.1067074e-14
6.6562848e-12
4.9064393e-14
6.6367264e-12
1.9554419e-14
6.6427363e-12
-6.0133028e-15
6.6691361e-12
-2.6403238e-14
6.7098183e-12
-4.0685018e-14
6.7581227e-12
-4.8307236e-14
6.8072663e-12
-4.9145897e-14
6.8507299e-12
-4.3465829e-14
6.882673e-12
-3.194493e-14
6.8982091e-12
-1.5537925e-14
6.8936213e-12
4.5864896e-15
6.8664928e-12
2.7126981e-14
6.8157515e-12
5.0740184e-14
6.7416375e-12
7.4112676e-14
6.6456163e-12
9.6020135e-14
6.530249e-12
1.1536609e-13
6.3990322e-12
1.3121571e-13
6.2562129e-12
1.4281807e-13
6.1065818e-12
1.4963008e-13
5.9552494e-12
1.5133117e-13
5.8074039e-12
1.4784454e-13
5.6680606e-12
1.3934206e-13
5.5418159e-12
1.2624385e-13
5.432606e-12
1.0920886e-13
5.3434994e-12
8.9105786e-14
5.2765357e-12
6.6962884e-14
5.2326104e-12
4.392476e-14
5.2114378e-12
2.1171898e-14
5.2115902e-12
-1.5279518e-16
5.2306353e-12
-1.904546e-14
5.2652685e-12
-3.4633385e-14
5.3115083e-12
-4.6240018e-14
5.3649422e-12
-5.3433838e-14
5.4209923e-12
-5.6050305e-14
5.4751848e-12
-5.4192406e-14
5.5233623e-12
-4.8177801e-14
5.5618817e-12
-3.8519584e-14
5.5877576e-12
-2.5876465e-14
5.5987491e-12
-1.099192e-14
5.5934164e-12
5.3317845e-15
5.571156e-12
2.2259543e-14
5.5321991e-12
3.8955715e-14
5.4775709e-12
5.4627094e-14
5.4090194e-12
6.8550039e-14
5.3289189e-12
8.0099318e-14
5.2401492e-12
8.8768301e-14
5.1459551e-12
9.4192876e-14
5.0497887e-12
9.6165032e-14
4.955141e-12
9.4646547e-14
4.865368e-12
8.9771635e-14
4.7835239e-12
8.1842992e-14
4.7122073e-12
7.1315219e-14
4.6534332e-12
5.877307e-14
4.608538e-12
4.4893877e-14
4.5781248e-12
3.0412153e-14
4.5620562e-12
1.6067373e-14
4.5594855e-12
2.5697163e-15
4.5689436e-12
-9.4592544e-15
4.5884388e-12
-1.9496091e-14
4.6155755e-12
-2.7137621e-14
4.647698e-12
-3.2123248e-14
4.6820475e-12
-3.4350346e-14
4.7159039e-12
-3.3857042e-14
4.7467198e-12
-3.0816616e-14
4.7722345e-12
-2.5515227e-14
4.7905553e-12
-1.8321527e-14
4.8002299e-12
-9.6751912e-15
4.8002772e-12
-4.8050029e-17
4.7902137e-12
1.0062797e-14
4.7700575e-12
2.0155368e-14
4.7403074e-12
2.9749309e-14
4.7019017e-12
3.840467e-14
4.6561603e-12
4.5740537e-14
4.6047107e-12
5.1448516e-14
4.5494035e-12
5.5306345e-14
4.4922172e-12
5.7185221e-14
4.4351602e-12
5.7056112e-14
4.380171e-12
5.4988237e-14
4.3290244e-12
5.1145864e-14
4.2832471e-12
4.5776519e-14
4.2440483e-12
3.9198206e-14
4.2122693e-12
3.1778326e-14
4.1883549e-12
2.3913873e-14
4.1723463e-12
1.6008124e-14
4.1638979e-12
8.4480389e-15
4.1623122e-12
1.5852746e-15
4.1665959e-12
-4.2840039e-15
4.1755264e-12
-8.9308192e-15
4.1877229e-12
-1.2196742e-14
4.2017237e-12
-1.4001069e-14
4.2160642e-12
-1.4340692e-14
4.2293475e-12
-1.3283486e-14
4.2403085e-12
-1.0961116e-14
4.2478663e-12
-7.5578888e-15
4.2511627e-12
-3.2963073e-15
4.2495902e-12
1.5724552e-15
4.2428083e-12
6.7821424e-15
4.2307454e-12
1.2063166e-14
4.2135893e-12
1.7156536e-14
4.191766e-12
2.1823748e-14
4.1659089e-12
2.585779e-14
4.1368197e-12
2.9089879e-14
4.1054234e-12
3.1397159e-14
4.0727188e-12
3.2705356e-14
4.0397276e-12
3.2992128e-14
4.0074434e-12
3.2284931e-14
3.9767849e-12
3.0659422e-14
3.948553e-12
2.8232611e-14
3.923397e-12
2.515676e-14
3.9017887e-12
2.1608925e-14
3.8840074e-12
1.7781969e-14
3.870135e-12
1.387287e-14
3.8600624e-12
1.0073111e-14
3.8535046e-12
6.5582823e-15
3.8500244e-12
3.4806788e-15
3.8490628e-12
9.6201315e-16
3.8499736e-12
-9.1041472e-16
3.8520603e-12
-2.0862509e-15
3.8546127e-12
-2.5519561e-15
3.8569427e-12
-2.3295026e-15
3.858416e-12
-1.4727692e-15
3.8584797e-12
-6.3174579e-17
3.8566841e-12
1.7962123e-15
3.8526979e-12
3.9867947e-15
3.8463174e-12
6.3810225e-15
3.8374692e-12
8.8487739e-15
3.8262061e-12
1.1263713e-14
3.8126978e-12
1.3508844e-14
3.7972167e-12
1.5481613e-14
3.7801194e-12
1.7097867e-14
3.7618249e-12
1.829504e-14
3.7427915e-12
1.903397e-14
3.7234922e-12
1.9299783e-14
3.7043913e-12
1.9101356e-14
3.6859219e-12
1.8469869e-14
3.6684663e-12
1.7456106e-14
3.6523396e-12
1.612708e-14
3.6377783e-12
1.4561805e-14
3.6249318e-12
1.2846793e-14
3.613861e-12
1.1071272e-14
3.6045387e-12
9.3225713e-15
3.5968572e-12
7.6818374e-15
3.5906372e-12
6.2202872e-15
3.5856412e-12
4.9962665e-15
3.5815883e-12
4.0530482e-15
3.5781708e-12
3.4176825e-15
3.5750704e-12
3.1005702e-15
3.5719745e-12
3.0961065e-15
3.5685907e-12
3.3838413e-15
3.5646603e-12
3.9305554e-15
3.5599679e-12
4.6925286e-15
3.5543495e-12
5.6184822e-15
3.5476972e-12
6.6523718e-15
3.5399608e-12
7.7365225e-15
3.5311462e-12
8.8146742e-15
3.5213124e-12
9.8338656e-15
3.5105611e-12
1.0751398e-14
3.4990388e-12
1.1522383e-14
3.4868727e-12
1.2166076e-14
3.4743121e-12
1.2560648e-14
3.4609451e-12
1.3366994e-14
3.4480019e-12
1.2943115e-14
2.2169897e-14
2.7995065e-11
-2.1430019e-11
3.9777867e-11
-1.9399347e-11
4.5634267e-11
-1.4866289e-11
4.9468998e-11
-9.2952468e-12
5.14234e-11
-4.458429e-12
5.1803991e-11
-1.1150314e-12
5.1091421e-11
9.3739284e-13
4.9684956e-11
2.106891e-12
4.7874423e-11
2.7078215e-12
4.5877473e-11
2.9390508e-12
4.3850197e-11
2.935721e-12
4.1894756e-11
2.791658e-12
4.0071183e-11
2.5700924e-12
3.8409278e-11
2.3135939e-12
3.6917645e-11
2.0515205e-12
3.5590155e-11
1.8040995e-12
3.4410794e-11
1.584633e-12
3.335752e-11
1.4009243e-12
3.2405415e-11
1.2562796e-12
3.1529319e-11
1.1502754e-12
3.0705979e-11
1.07948e-12
2.9915664e-11
1.0382342e-12
2.9143215e-11
1.019488e-12
2.837851e-11
1.0156243e-12
2.7616426e-11
1.0191801e-12
2.68564e-11
1.0233966e-12
2.6101719e-11
1.0225755e-12
2.5358686e-11
1.0122543e-12
2.4635737e-11
9.8924831e-13
2.3942585e-11
9.5160914e-13
2.3289428e-11
8.985478e-13
2.2686215e-11
8.3035002e-13
2.2141974e-11
7.4829791e-13
2.1664212e-11
6.5459001e-13
2.1258372e-11
5.5225071e-13
2.0927383e-11
4.4500885e-13
2.0671322e-11
3.3712435e-13
2.0487224e-11
2.3315733e-13
2.0369055e-11
1.3772058e-13
2.0307825e-11
5.5212367e-14
2.0291982e-11
-1.0563182e-14
2.0308103e-11
-5.6808791e-14
2.034176e-11
-8.1967144e-14
2.0378353e-11
-8.5741155e-14
2.0403983e-11
-6.9097786e-14
2.0406151e-11
-3.4114752e-14
2.0374362e-11
1.6249354e-14
2.0300735e-11
7.8211893e-14
2.0180298e-11
1.4756271e-13
2.0011056e-11
2.1998121e-13
1.9793891e-11
2.912769e-13
1.9532334e-11
3.575757e-13
1.923224e-11
4.1545916e-13
1.8901392e-11
4.6206259e-13
1.8549063e-11
4.9514668e-13
1.8185543e-11
5.1314897e-13
1.7821649e-11
5.1522379e-13
1.746822e-11
5.0127271e-13
1.7135607e-11
4.7195389e-13
1.6833185e-11
4.2866496e-13
1.6568893e-11
3.7349996e-13
1.6348841e-11
3.0915776e-13
1.617699e-11
2.3881307e-13
1.6054939e-11
1.6597462e-13
1.5981813e-11
9.4297586e-14
1.5954338e-11
2.732238e-14
1.5967087e-11
-3.1794391e-14
1.6012835e-11
-8.0381473e-14
1.608296e-11
-1.16365e-13
1.6167959e-11
-1.3843272e-13
1.6258011e-11
-1.4610253e-13
1.6343537e-11
-1.3971833e-13
1.6415674e-11
-1.2031412e-13
1.6466731e-11
-8.9577289e-14
1.6490471e-11
-4.9616011e-14
1.6482221e-11
-2.7431778e-15
1.6439081e-11
4.8471829e-14
1.6360019e-11
1.0131997e-13
1.6245826e-11
1.5314788e-13
1.6098989e-11
2.0146344e-13
1.5923512e-11
2.4402618e-13
1.5724685e-11
2.7892461e-13
1.5508809e-11
3.0464332e-13
1.5282882e-11
3.2011861e-13
1.5054264e-11
3.2478125e-13
1.4830328e-11
3.185815e-13
1.4618102e-11
3.0199617e-13
1.4423937e-11
2.7600658e-13
1.4253198e-11
2.4205279e-13
1.4110012e-11
2.0195752e-13
1.3997077e-11
1.5782793e-13
1.3915547e-11
1.1194082e-13
1.3865002e-11
6.6611479e-14
1.3843518e-11
2.4051696e-14
1.3847833e-11
-1.3775157e-14
1.3873569e-11
-4.5233686e-14
1.3915503e-11
-6.9071916e-14
1.3967868e-11
-8.4489133e-14
1.4024686e-11
-9.117e-14
1.4080083e-11
-8.9254718e-14
1.4128578e-11
-7.9312481e-14
1.416533e-11
-6.2267651e-14
1.418634e-11
-3.9332705e-14
1.4188552e-11
-1.1887823e-14
1.4169932e-11
1.857123e-14
1.4129559e-11
5.0435038e-14
1.406761e-11
8.2103679e-14
1.3985299e-11
1.1205932e-13
1.3884777e-11
1.389264e-13
1.3768992e-11
1.6152383e-13
1.364153e-11
1.7890951e-13
1.3506421e-11
1.9041481e-13
1.3367936e-11
1.9566876e-13
1.3230382e-11
1.9460917e-13
1.3097889e-11
1.8748049e-13
1.2974217e-11
1.7481648e-13
1.2862584e-11
1.5740853e-13
1.2765522e-11
1.3626e-13
1.2684771e-11
1.1252801e-13
1.2621226e-11
8.7458105e-14
1.2574917e-11
6.2316297e-14
1.2545046e-11
3.8319254e-14
1.2530055e-11
1.6575629e-14
1.2527747e-11
-1.9763343e-15
1.2535431e-11
-1.6615506e-14
1.2550084e-11
-2.6850236e-14
1.2568516e-11
-3.2434039e-14
1.258754e-11
-3.3364878e-14
1.2604123e-11
-2.9866914e-14
1.2615537e-11
-2.2374594e-14
1.2619459e-11
-1.1480194e-14
1.2614054e-11
2.1081267e-15
1.2598042e-11
1.7584773e-14
1.2570732e-11
3.4092174e-14
1.2532026e-11
5.0770639e-14
1.2482386e-11
6.6796806e-14
1.2422791e-11
8.1418853e-14
1.2354664e-11
9.3986257e-14
1.227978e-11
1.0397519e-13
1.2200171e-11
1.1100667e-13
1.2118018e-11
1.14859e-13
1.203554e-11
1.1547188e-13
1.1954882e-11
1.1294393e-13
1.187802e-11
1.0752186e-13
1.180667e-11
9.9583532e-14
1.1742214e-11
8.9613893e-14
1.1685646e-11
7.8176819e-14
1.1637546e-11
6.5882952e-14
1.1598062e-11
5.3356815e-14
1.1566932e-11
4.1203692e-14
1.1543511e-11
2.9979817e-14
1.1526826e-11
2.0166172e-14
1.151564e-11
1.2148046e-14
1.150853e-11
6.2002043e-15
1.1503964e-11
2.4798033e-15
1.1500386e-11
1.0259255e-15
1.1496293e-11
1.7647499e-15
1.14903e-11
4.5202578e-15
1.1481208e-11
9.0294375e-15
1.1468045e-11
1.4959808e-14
1.1450102e-11
2.192982e-14
1.1426954e-11
2.9530076e-14
1.1398459e-11
3.7344475e-14
1.1364753e-11
4.4969943e-14
1.1326228e-11
5.2034821e-14
1.1283495e-11
5.8214379e-14
1.123735e-11
6.3243837e-14
1.1188718e-11
6.6927562e-14
1.1138607e-11
6.914514e-14
1.1088054e-11
6.9853205e-14
1.1038072e-11
6.908405e-14
1.0989602e-11
6.6940181e-14
1.0943473e-11
6.3586188e-14
1.0900363e-11
5.9237396e-14
1.0860778e-11
5.4146967e-14
1.0825034e-11
4.8591183e-14
1.0793251e-11
4.2854717e-14
1.0765358e-11
3.7215724e-14
1.0741108e-11
3.1932497e-14
1.0720097e-11
2.7231422e-14
1.0701796e-11
2.3297689e-14
1.0685581e-11
2.026825e-14
1.067077e-11
1.8228083e-14
1.0656662e-11
1.7208932e-14
1.0642567e-11
1.7191209e-14
1.0627843e-11
1.8107962e-14
1.0611922e-11
1.9851295e-14
1.0594335e-11
2.2280036e-14
1.0574725e-11
2.5228855e-14
1.055286e-11
2.8517683e-14
1.0528635e-11
3.1961445e-14
1.050207e-11
3.5379788e-14
1.0473299e-11
3.8604537e-14
1.0442556e-11
4.1494239e-14
1.0410157e-11
4.3921654e-14
1.0376451e-11
4.5871748e-14
1.0341846e-11
4.7165342e-14
1.0306454e-11
4.8759276e-14
1.0270891e-11
4.8506396e-14
6.328324e-14
2.0334813e-10
-5.3336486e-12
1.9263508e-10
-8.686303e-12
1.8471033e-10
-6.9415446e-12
1.7915793e-10
-3.742853e-12
1.7509293e-10
-3.9343372e-13
1.7144058e-10
2.5373112e-12
1.6760781e-10
4.7701596e-12
1.6342178e-10
6.2929192e-12
1.5890508e-10
7.2245098e-12
1.5415182e-10
7.6923102e-12
1.4928588e-10
7.8016504e-12
1.4443447e-10
7.6430658e-12
1.3970783e-10
7.2967228e-12
1.3518888e-10
6.8325359e-12
1.3093019e-10
6.3102133e-12
1.2695499e-10
5.779295e-12
1.2326081e-10
5.2788027e-12
1.1982491e-10
4.8368242e-12
1.1661077e-10
4.4704162e-12
1.1357497e-10
4.1860669e-12
1.1067359e-10
3.9808583e-12
1.0786751e-10
3.8443158e-12
1.0512625e-10
3.760741e-12
1.0243018e-10
3.7116934e-12
9.9771089e-11
3.6782735e-12
9.7151531e-11
3.6429531e-12
9.4583268e-11
3.5908374e-12
9.2085145e-11
3.5103762e-12
8.9680762e-11
3.3936293e-12
8.7396141e-11
3.2362272e-12
8.5257529e-11
3.0371575e-12
8.3289402e-11
2.7984747e-12
8.1512714e-11
2.5249822e-12
7.99434e-11
2.2239007e-12
7.8591142e-11
1.904505e-12
7.7458444e-11
1.5777038e-12
7.6540041e-11
1.2555237e-12
7.5822707e-11
9.5048714e-13
7.5285525e-11
6.7489986e-13
7.4900671e-11
4.4006276e-13
7.4634679e-11
2.554258e-13
7.4450096e-11
1.2777188e-13
7.4307494e-11
6.0631702e-14
7.4167703e-11
5.4048637e-14
7.3994012e-11
1.045907e-13
7.3754196e-11
2.0570008e-13
7.3422278e-11
3.4816528e-13
7.2979613e-11
5.2087562e-13
7.2415487e-11
7.116879e-13
7.1727226e-11
9.0824143e-13
7.0919843e-11
1.0986586e-12
7.0005317e-11
1.2721014e-12
6.9001593e-11
1.419182e-12
6.7931404e-11
1.5322506e-12
6.6820963e-11
1.6055869e-12
6.5698588e-11
1.635524e-12
6.4593296e-11
1.620515e-12
6.3533411e-11
1.5611567e-12
6.2545215e-11
1.460149e-12
6.1651695e-11
1.3221844e-12
6.0871438e-11
1.1537559e-12
6.021774e-11
9.6285556e-13
5.9697947e-11
7.5860585e-13
5.9313133e-11
5.5078756e-13
5.9058053e-11
3.4937782e-13
5.892131e-11
1.6406463e-13
5.8885938e-11
3.5781514e-15
5.8930663e-11
-1.2510684e-13
5.9031331e-11
-2.1703301e-13
5.9162256e-11
-2.6935762e-13
5.9297584e-11
-2.8142983e-13
5.9412628e-11
-2.5476268e-13
5.9485089e-11
-1.9277505e-13
5.9495735e-11
-1.0022261e-13
5.9429159e-11
1.6959661e-14
5.9274626e-11
1.5178982e-13
5.9026412e-11
2.9668539e-13
5.8683794e-11
4.4393731e-13
5.8250856e-11
5.8608499e-13
5.7736097e-11
7.1622195e-13
5.7151868e-11
8.2825327e-13
5.651368e-11
9.1711209e-13
5.5839387e-11
9.7893455e-13
5.5148308e-11
1.0111968e-12
5.4460283e-11
1.012805e-12
5.3794728e-11
9.8413545e-13
5.3169709e-11
9.2701426e-13
5.2601086e-11
8.4462764e-13
5.2101774e-11
7.4136381e-13
5.1681148e-11
6.2258194e-13
5.1344647e-11
4.9432755e-13
5.1093585e-11
3.6300126e-13
5.092518e-11
2.3501457e-13
5.0832774e-11
1.164563e-13
5.0806249e-11
1.2748264e-14
5.0832757e-11
-7.174275e-14
5.0897566e-11
-1.3388264e-13
5.0984901e-11
-1.7182498e-13
5.1078767e-11
-1.8503679e-13
5.1163745e-11
-1.7423402e-13
5.1225719e-11
-1.4128759e-13
5.1252432e-11
-8.8980764e-14
5.1233859e-11
-2.0760525e-14
5.1162646e-11
5.9324176e-14
5.1034417e-11
1.4679918e-13
5.0847807e-11
2.3704495e-13
5.0604378e-11
3.2553122e-13
5.0308424e-11
4.0801304e-13
4.9966648e-11
4.8070142e-13
4.9587761e-11
5.4040915e-13
4.9182001e-11
5.8466828e-13
4.8760597e-11
6.1181777e-13
4.8335208e-11
6.2105708e-13
4.7917353e-11
6.1246336e-13
4.7517863e-11
5.8696875e-13
4.7146381e-11
5.4629797e-13
4.6810922e-11
4.9286609e-13
4.651754e-11
4.2964178e-13
4.6270087e-11
3.5997942e-13
4.607011e-11
2.874351e-13
4.5916852e-11
2.1557351e-13
4.5807388e-11
1.4778195e-13
4.5736865e-11
8.7098413e-14
4.5698814e-11
3.6073606e-14
4.5685547e-11
-3.3494578e-15
4.5688633e-11
-2.9936232e-14
4.5699362e-11
-4.3163986e-14
4.5709185e-11
-4.3187936e-14
4.5710102e-11
-3.0784485e-14
4.5694992e-11
-7.2645383e-15
4.5657908e-11
2.5603262e-14
4.5594332e-11
6.5684327e-14
4.5501308e-11
1.1060908e-13
4.5377496e-11
1.5790385e-13
4.5223155e-11
2.0511272e-13
4.5040043e-11
2.4990913e-13
4.4831268e-11
2.9019469e-13
4.4601072e-11
3.2418364e-13
4.4354579e-11
3.5046981e-13
4.4097511e-11
3.680752e-13
4.3835894e-11
3.7647766e-13
4.3575749e-11
3.7561786e-13
4.3322809e-11
3.6588442e-13
4.3082254e-11
3.4807866e-13
4.2858478e-11
3.2336003e-13
4.2654917e-11
2.9317546e-13
4.2473918e-11
2.5917593e-13
4.2316676e-11
2.231253e-13
4.2183227e-11
1.8680623e-13
4.2072502e-11
1.5192881e-13
4.1982435e-11
1.20047e-13
4.1910114e-11
9.2487361e-14
4.1851969e-11
7.0293402e-14
4.1803981e-11
5.4188021e-14
4.1761905e-11
4.4555556e-14
4.1721489e-11
4.1442298e-14
4.167868e-11
4.4574108e-14
4.1629812e-11
5.3389162e-14
4.1571759e-11
6.7082945e-14
4.1502057e-11
8.4661764e-14
4.1418985e-11
1.0500207e-13
4.1321604e-11
1.2691183e-13
4.1209758e-11
1.4919126e-13
4.1084038e-11
1.7068993e-13
4.0945715e-11
1.9035835e-13
4.0796638e-11
2.0729188e-13
4.0639117e-11
2.2076581e-13
4.0475785e-11
2.3026021e-13
4.0309456e-11
2.3547442e-13
4.014298e-11
2.3633032e-13
3.9979099e-11
2.3296531e-13
3.9820324e-11
2.2571505e-13
3.9668823e-11
2.1508761e-13
3.9526331e-11
2.0173005e-13
3.9394089e-11
1.8638996e-13
3.9272807e-11
1.6987328e-13
3.916266e-11
1.5300161e-13
3.9063306e-11
1.3657039e-13
3.8973928e-11
1.213109e-13
3.8893302e-11
1.0785716e-13
3.881988e-11
9.6720047e-14
3.8751879e-11
8.8268757e-14
3.8687387e-11
8.2720948e-14
3.8624455e-11
8.0140784e-14
3.8561201e-11
8.0445241e-14
3.8495892e-11
8.3416946e-14
3.842702e-11
8.872331e-14
3.8353361e-11
9.5939674e-14
3.8274014e-11
1.0457591e-13
3.8188427e-11
1.1410414e-13
3.8096402e-11
1.2398675e-13
3.7998078e-11
1.3370403e-13
3.7893907e-11
1.4277549e-13
3.7784605e-11
1.507959e-13
3.7671122e-11
1.5740441e-13
3.7554498e-11
1.6249591e-13
3.7436129e-11
1.6553427e-13
3.7316603e-11
1.6828568e-13
3.7200207e-11
1.6490229e-13
1.8268225e-13
2.1599155e-10
-1.8806964e-12
2.1165222e-10
-4.3469801e-12
2.0807042e-10
-3.3597465e-12
2.0532146e-10
-9.9389051e-13
2.0331675e-10
1.611271e-12
2.017822e-10
4.0718559e-12
2.0035952e-10
6.1928299e-12
1.9878409e-10
7.8683502e-12
1.9692717e-10
9.0814194e-12
1.9475869e-10
9.8607912e-12
1.9230963e-10
1.0250708e-11
1.8964565e-10
1.0307039e-11
1.8684551e-10
1.0096853e-11
1.8398419e-10
9.6938509e-12
1.8112159e-10
9.1728137e-12
1.7829631e-10
8.6045744e-12
1.7552384e-10
8.0512691e-12
1.7279861e-10
7.5620441e-12
1.7009916e-10
7.1698725e-12
1.6739511e-10
6.8901062e-12
1.6465487e-10
6.7211034e-12
1.6185233e-10
6.646855e-12
1.5897199e-10
6.6410773e-12
1.5601173e-10
6.6719478e-12
1.5298336e-10
6.7066453e-12
1.4991125e-10
6.7150656e-12
1.4682969e-10
6.6723978e-12
1.4377951e-10
6.5605478e-12
1.4080455e-10
6.3685954e-12
1.3794821e-10
6.0925624e-12
1.352506e-10
5.7347664e-12
1.3274609e-10
5.3029771e-12
1.3046156e-10
4.8095139e-12
1.2841511e-10
4.2703481e-12
1.2661539e-10
3.7042221e-12
1.2506133e-10
3.1317629e-12
1.237423e-10
2.5745467e-12
1.226387e-10
2.0540858e-12
1.2172288e-10
1.590722e-12
1.209605e-10
1.2024392e-12
1.2031226e-10
9.0366072e-13
1.1973588e-10
7.041519e-13
1.1918832e-10
6.0819215e-13
1.186282e-10
6.1416234e-13
1.1801819e-10
7.1460557e-13
1.1732709e-10
8.9679678e-13
1.1653151e-10
1.1437466e-12
1.1561684e-10
1.4355427e-12
1.1457769e-10
1.7508326e-12
1.1341769e-10
2.068249e-12
1.121487e-10
2.3676449e-12
1.1078973e-10
2.6310725e-12
1.0936541e-10
2.8434974e-12
1.0790439e-10
2.9932736e-12
1.0643755e-10
3.0724231e-12
1.0499632e-10
3.0767589e-12
1.0361095e-10
3.0058811e-12
1.0230905e-10
2.8630593e-12
1.011142e-10
2.6549977e-12
1.0004491e-10
2.391474e-12
9.9113801e-11
2.0848612e-12
9.8327135e-11
1.7495214e-12
9.7684656e-11
1.4010839e-12
9.7179757e-11
1.0556867e-12
9.6800006e-11
7.2912838e-13
9.652802e-11
4.3604981e-13
9.634229e-11
1.8930811e-13
9.6218091e-11
-9.0764733e-16
9.6128994e-11
-1.2793623e-13
9.6048449e-11
-1.888119e-13
9.5951073e-11
-1.8405428e-13
9.5813581e-11
-1.1727019e-13
9.5615679e-11
5.1275282e-15
9.5341205e-11
1.742511e-13
9.4978968e-11
3.7919708e-13
9.4523028e-11
6.0772938e-13
9.3972712e-11
8.470007e-13
9.3332436e-11
1.0842136e-12
9.2611306e-11
1.3072148e-12
9.1822517e-11
1.5050098e-12
9.0982575e-11
1.6681943e-12
9.0110384e-11
1.7893029e-12
8.9226243e-11
1.8630744e-12
8.835081e-11
1.8866295e-12
8.7504059e-11
1.8595546e-12
8.6704311e-11
1.783883e-12
8.5967357e-11
1.663967e-12
8.5305745e-11
1.5062389e-12
8.4728246e-11
1.3188619e-12
8.4239535e-11
1.1112917e-12
8.3840099e-11
8.9376174e-13
8.3526367e-11
6.7673233e-13
8.3291041e-11
4.7033886e-13
8.3123631e-11
2.8386555e-13
8.3011052e-11
1.2532588e-13
8.2938275e-11
1.0335589e-15
8.2889233e-11
-8.4842368e-14
8.2847743e-11
-1.3033527e-13
8.2798252e-11
-1.3554703e-13
8.2726496e-11
-1.0247894e-13
8.261994e-11
-3.4732824e-14
8.2468314e-11
6.2644464e-14
8.2264143e-11
1.8341015e-13
8.2003007e-11
3.204596e-13
8.1683572e-11
4.6623385e-13
8.1307513e-11
6.1310284e-13
8.0879325e-11
7.537191e-13
8.0406e-11
8.8133736e-13
7.9896608e-11
9.9009301e-13
7.9361783e-11
1.0752329e-12
7.8813157e-11
1.1332935e-12
7.8262755e-11
1.1622193e-12
7.7722392e-11
1.1614186e-12
7.7203103e-11
1.1317515e-12
7.6714622e-11
1.0754494e-12
7.626495e-11
9.9596943e-13
7.5860027e-11
8.977878e-13
7.5503524e-11
7.8614476e-13
7.519675e-11
6.6675261e-13
7.4938698e-11
5.4548636e-13
7.4726195e-11
4.2807576e-13
7.4554161e-11
3.1981481e-13
7.4415947e-11
2.2531223e-13
7.430374e-11
1.4827926e-13
7.4208997e-11
9.1392968e-14
7.4122864e-11
5.6196371e-14
7.4036612e-11
4.3088136e-14
7.3942043e-11
5.1379811e-14
7.3831862e-11
7.939672e-14
7.3699979e-11
1.2461776e-13
7.3541755e-11
1.8382724e-13
7.3354134e-11
2.5330603e-13
7.3135706e-11
3.2903657e-13
7.2886703e-11
4.0690788e-13
7.2608903e-11
4.8291254e-13
7.2305486e-11
5.5332724e-13
7.198081e-11
6.1487157e-13
7.1640155e-11
6.6483956e-13
7.1289425e-11
7.0120043e-13
7.0934836e-11
7.2266482e-13
7.05826e-11
7.2871516e-13
7.0238619e-11
7.1959896e-13
6.9908218e-11
6.962862e-13
6.9595905e-11
6.6039311e-13
6.9305188e-11
6.1407688e-13
6.9038457e-11
5.5990658e-13
6.8796916e-11
5.0071812e-13
6.858058e-11
4.3946082e-13
6.8388342e-11
3.7904464e-13
6.8218075e-11
3.2219589e-13
6.8066792e-11
2.7132969e-13
6.7930834e-11
2.2844474e-13
6.7806082e-11
1.950454e-13
6.7688177e-11
1.7209349e-13
6.7572742e-11
1.599909e-13
6.7455593e-11
1.5859133e-13
6.7332928e-11
1.6723888e-13
6.7201488e-11
1.8482927e-13
6.7058682e-11
2.0988929e-13
6.6902675e-11
2.4066898e-13
6.6732436e-11
2.7524145e-13
6.6547743e-11
3.1160489e-13
6.6349153e-11
3.4778211e-13
6.613793e-11
3.8191319e-13
6.5915951e-11
4.123375e-13
6.5685581e-11
4.3766206e-13
6.5449534e-11
4.5681398e-13
6.5210719e-11
4.6907523e-13
6.4972095e-11
4.7409909e-13
6.4736517e-11
4.7190822e-13
6.4506608e-11
4.628751e-13
6.4284637e-11
4.4768658e-13
6.407243e-11
4.2729468e-13
6.3871303e-11
4.0285665e-13
6.3682026e-11
3.7566783e-13
6.3504809e-11
3.4709071e-13
6.3339326e-11
3.1848434e-13
6.3184759e-11
2.9113738e-13
6.3039862e-11
2.662083e-13
6.2903044e-11
2.4467542e-13
6.2772465e-11
2.2729868e-13
6.2646139e-11
2.1459476e-13
6.2522035e-11
2.0682567e-13
6.2398175e-11
2.0400086e-13
6.2272728e-11
2.058917e-13
6.2144089e-11
2.1205686e-13
6.2010935e-11
2.2187659e-13
6.1872281e-11
2.3459364e-13
6.1727499e-11
2.4935833e-13
6.1576328e-11
2.6527546e-13
6.1418864e-11
2.8145005e-13
6.1255536e-11
2.970324e-13
6.108706e-11
3.1125107e-13
6.0914389e-11
3.2346673e-13
6.0738672e-11
3.3312154e-13
6.0561132e-11
3.4003633e-13
6.0383265e-11
3.434008e-13
6.0206072e-11
3.4547916e-13
6.0032291e-11
3.3868244e-13
3.4998873e-13
2.1826364e-10
-6.9983972e-13
2.1564776e-10
-1.7311015e-12
2.1337161e-10
-1.0836037e-12
2.1175363e-10
6.2409387e-13
2.1068378e-10
2.6811111e-12
2.0998584e-10
4.7697949e-12
2.0945702e-10
6.7216455e-12
2.0892527e-10
8.4001002e-12
2.082881e-10
9.7185772e-12
2.0750558e-10
1.0643308e-11
2.0657968e-10
1.1176607e-11
2.0553874e-10
1.1347973e-11
2.0442493e-10
1.1210657e-11
2.0328242e-10
1.0836354e-11
2.0214727e-10
1.030796e-11
2.0103997e-10
9.7118758e-12
1.9996115e-10
9.1300819e-12
1.9889099e-10
8.6322069e-12
1.977923e-10
8.2685525e-12
1.96617e-10
8.0654047e-12
1.9531437e-10
8.0237325e-12
1.9383962e-10
8.121603e-12
1.9216103e-10
8.3196751e-12
1.9026453e-10
8.5684409e-12
1.8815548e-10
8.8156976e-12
1.8585755e-10
9.0129899e-12
1.8340967e-10
9.1202782e-12
1.8086159e-10
9.1086329e-12
1.7826902e-10
8.961158e-12
1.7568901e-10
8.6725733e-12
1.7317583e-10
8.2479401e-12
1.7077785e-10
7.70096e-12
1.685352e-10
7.0521642e-12
1.6647836e-10
6.3271815e-12
1.6462741e-10
5.5551749e-12
1.6299172e-10
4.7674456e-12
1.6157013e-10
3.9961363e-12
1.6035127e-10
3.272945e-12
1.5931425e-10
2.62774e-12
1.5842967e-10
2.0870149e-12
1.5766109e-10
1.6722412e-12
1.5696698e-10
1.3982573e-12
1.5630327e-10
1.2719063e-12
1.5562623e-10
1.2912011e-12
1.5489561e-10
1.4452191e-12
1.5407755e-10
1.7148615e-12
1.5314685e-10
2.0744414e-12
1.5208854e-10
2.4938507e-12
1.5089838e-10
2.9409909e-12
1.4958252e-10
3.3841161e-12
1.4815632e-10
3.7938426e-12
1.4664269e-10
4.1446968e-12
1.4507002e-10
4.4161726e-12
1.4346995e-10
4.5933418e-12
1.4187527e-10
4.667096e-12
1.4031793e-10
4.6340987e-12
1.388273e-10
4.4965186e-12
1.3742877e-10
4.2615892e-12
1.3614274e-10
3.9410277e-12
1.3498388e-10
3.5503294e-12
1.3396078e-10
3.1079596e-12
1.3307585e-10
2.6344572e-12
1.3232546e-10
2.1514648e-12
1.3170043e-10
1.6807239e-12
1.311865e-10
1.2430589e-12
1.3076519e-10
8.5735902e-13
1.3041485e-10
5.3964402e-13
1.3011171e-10
3.0222896e-13
1.2983079e-10
1.5298914e-13
1.2954699e-10
9.4986132e-14
1.2923645e-10
1.2648841e-13
1.288779e-10
2.4128009e-13
1.2845393e-10
4.2909889e-13
1.2795185e-10
6.7632273e-13
1.2736421e-10
9.6683956e-13
1.2668892e-10
1.2830222e-12
1.2592918e-10
1.6067397e-12
1.2509308e-10
1.9203114e-12
1.2419294e-10
2.2073552e-12
1.2324445e-10
2.4535013e-12
1.2226568e-10
2.6469625e-12
1.2127603e-10
2.7789561e-12
1.2029512e-10
2.8439814e-12
1.193418e-10
2.8399511e-12
1.1843317e-10
2.7681769e-12
1.1758385e-10
2.6332102e-12
1.1680527e-10
2.4425401e-12
1.1610535e-10
2.2061595e-12
1.154882e-10
1.9360155e-12
1.1495412e-10
1.6453691e-12
1.1449978e-10
1.3481012e-12
1.1411851e-10
1.0579948e-12
1.1380081e-10
7.880399e-13
1.1353487e-10
5.4980705e-13
1.1330731e-10
3.5288543e-13
1.1310386e-10
2.0448119e-13
1.1290994e-10
1.0907788e-13
1.1271128e-10
6.8326878e-14
1.1249458e-10
8.1146696e-14
1.1224817e-10
1.4393645e-13
1.1196253e-10
2.5090098e-13
1.116308e-10
3.9437518e-13
1.1124891e-10
5.6529811e-13
1.1081567e-10
7.5369743e-13
1.103327e-10
9.4920983e-13
1.0980421e-10
1.1415915e-12
1.0923673e-10
1.3211931e-12
1.0863869e-10
1.4793829e-12
1.0801987e-10
1.6089053e-12
1.0739094e-10
1.7041632e-12
1.0676282e-10
1.7614185e-12
1.0614613e-10
1.7789018e-12
1.0555072e-10
1.7568295e-12
1.0498515e-10
1.6973274e-12
1.0445633e-10
1.6042638e-12
1.039693e-10
1.4830011e-12
1.0352701e-10
1.3400791e-12
1.031303e-10
1.1828465e-12
1.0277799e-10
1.0190623e-12
1.0246699e-10
8.5648856e-13
1.0219257e-10
7.0249988e-13
1.0194865e-10
5.6372854e-13
1.017282e-10
4.457659e-13
1.0152355e-10
3.5292942e-13
1.0132683e-10
2.8810992e-13
1.0113033e-10
2.5269601e-13
1.0092683e-10
2.4658448e-13
1.0070994e-10
2.6826851e-13
1.0047435e-10
3.1498776e-13
1.0021604e-10
3.8292753e-13
9.9932418e-11
4.6745212e-13
9.9622356e-11
5.6336742e-13
9.9286197e-11
6.6519579e-13
9.8925656e-11
7.6744909e-13
9.8543682e-11
8.6488745e-13
9.8144256e-11
9.5275367e-13
9.7732154e-11
1.0269741e-12
9.7312675e-11
1.0843196e-12
9.6891356e-11
1.1225203e-12
9.6473689e-11
1.1403321e-12
9.6064854e-11
1.1375514e-12
9.5669473e-11
1.1149803e-12
9.5291416e-11
1.0743441e-12
9.4933642e-11
1.0181678e-12
9.4598102e-11
9.4961648e-13
9.4285698e-11
8.7231105e-13
9.3996288e-11
7.9012859e-13
9.372875e-11
7.0699834e-13
9.3481091e-11
6.2670441e-13
9.3250581e-11
5.5270547e-13
9.3033931e-11
4.8797995e-13
9.2827471e-11
4.3490374e-13
9.2627352e-11
3.9516484e-13
9.2429728e-11
3.697174e-13
9.2230944e-11
3.5877493e-13
9.2027695e-11
3.6184071e-13
9.1817162e-11
3.7777111e-13
9.1597125e-11
4.0486688e-13
9.1366029e-11
4.4098589e-13
9.1123027e-11
4.8367054e-13
9.0867986e-11
5.3028294e-13
9.060145e-11
5.7814092e-13
9.0324584e-11
6.2464869e-13
9.0039081e-11
6.6741625e-13
8.9747056e-11
7.0436281e-13
8.9450918e-11
7.3380033e-13
8.9153238e-11
7.5449413e-13
8.8856615e-11
7.6569902e-13
8.8563544e-11
7.6717024e-13
8.8276303e-11
7.5914977e-13
8.7996848e-11
7.4232987e-13
8.7726739e-11
7.1779629e-13
8.7467079e-11
6.8695522e-13
8.7218488e-11
6.5144792e-13
8.6981098e-11
6.1305811e-13
8.6754571e-11
5.7361708e-13
8.6538145e-11
5.3491128e-13
8.6330685e-11
4.9859722e-13
8.6130766e-11
4.6612736e-13
8.5936751e-11
4.386903e-13
8.5746882e-11
4.1716746e-13
8.555937e-11
4.0210745e-13
8.5372477e-11
3.9371845e-13
8.51846e-11
3.918777e-13
8.4994335e-11
3.9615687e-13
8.4800531e-11
4.0586074e-13
8.4602331e-11
4.2007671e-13
8.4399193e-11
4.3773198e-13
8.4190896e-11
4.57655e-13
8.3977533e-11
4.786383e-13
8.3759485e-11
4.9949862e-13
8.3537383e-11
5.1913461e-13
8.3312065e-11
5.3656827e-13
8.3084523e-11
5.5100902e-13
8.2855855e-11
5.6178967e-13
8.2627183e-11
5.6870857e-13
8.2399729e-11
5.7085416e-13
8.2174533e-11
5.7067495e-13
8.1952523e-11
5.6069302e-13
5.6282232e-13
2.1888413e-10
-1.3947349e-13
2.1750122e-10
-3.4818864e-13
2.1612927e-10
2.8834024e-13
2.150514e-10
1.7019628e-12
2.1420879e-10
3.5237153e-12
2.1350753e-10
5.4710482e-12
2.1286602e-10
7.3631551e-12
2.1221762e-10
9.0484912e-12
2.1152943e-10
1.040677e-11
2.1080581e-10
1.1366922e-11
2.1007641e-10
1.1906002e-11
2.0938321e-10
1.2041169e-11
2.0877096e-10
1.1822898e-11
2.082793e-10
1.1328014e-11
2.0793568e-10
1.0651573e-11
2.077496e-10
9.8979577e-12
2.0770864e-10
9.1710426e-12
2.0777741e-10
8.5634253e-12
2.0790015e-10
8.1458193e-12
2.0800683e-10
7.9587182e-12
2.0802204e-10
8.0085254e-12
2.0787444e-10
8.2691979e-12
2.0750533e-10
8.6887802e-12
2.0687478e-10
9.1989979e-12
2.0596475e-10
9.7257191e-12
2.0477938e-10
1.0198366e-11
2.0334261e-10
1.0557046e-11
2.0169429e-10
1.0756949e-11
1.9988532e-10
1.0770127e-11
1.979727e-10
1.058519e-11
1.9601506e-10
1.020558e-11
1.9406892e-10
9.6470948e-12
1.921859e-10
8.9351836e-12
1.9041069e-10
8.102391e-12
1.8877972e-10
7.1861493e-12
1.8732019e-10
6.2269748e-12
1.8604935e-10
5.2669652e-12
1.8497385e-10
4.3484428e-12
1.8408913e-10
3.5124601e-12
1.833792e-10
2.7969509e-12
1.8281692e-10
2.2345143e-12
1.8236524e-10
1.8499351e-12
1.8197941e-10
1.6577412e-12
1.816103e-10