/*--------------------------------*- C++ -*----------------------------------*\
| =========                 |                                                 |
| \\      /  F ield         | OpenFOAM: The Open Source CFD Toolbox           |
|  \\    /   O peration     | Version:  2406                                  |
|   \\  /    A nd           | Website:  www.openfoam.com                      |
|    \\/     M anipulation  |                                                 |
\*---------------------------------------------------------------------------*/
FoamFile
{
    version     2.0;
    format      ascii;
    arch        "LSB;label=32;scalar=64";
    class       volVectorField;
    location    "2000";
    object      U;
}
// * * * * * * * * * * * * * * * * * * * * * * * * * * * * * * * * * * * * * //

dimensions      [0 1 -1 0 0 0 0];

internalField   nonuniform List<vector> 
6800
(
(-0.0097837768 0.0037963979 0)
(-0.010800187 -0.0069012261 0)
(0.021169017 -0.0070855891 0)
(0.048634599 -0.0032120738 0)
(0.063998935 -0.00078689324 0)
(0.069607648 0.00011899578 0)
(0.070074936 0.0003940057 0)
(0.06810293 0.00046642118 0)
(0.064986666 0.00045679094 0)
(0.061469024 0.00040974551 0)
(0.057968417 0.00035144137 0)
(0.054689678 0.00029319738 0)
(0.051726495 0.00023777553 0)
(0.049115902 0.00018619198 0)
(0.046859215 0.00013977993 0)
(0.044932916 9.9790995e-05 0)
(0.043297192 6.704756e-05 0)
(0.041902855 4.1945399e-05 0)
(0.040696872 2.4494119e-05 0)
(0.039626887 1.4329733e-05 0)
(0.038644875 1.0741696e-05 0)
(0.037709891 1.273578e-05 0)
(0.036789824 1.9122306e-05 0)
(0.035862185 2.8617684e-05 0)
(0.034914022 3.9939982e-05 0)
(0.033941168 5.1887324e-05 0)
(0.032947034 6.3389066e-05 0)
(0.031941186 7.3533747e-05 0)
(0.030937843 8.1577193e-05 0)
(0.029954417 8.6942867e-05 0)
(0.029010121 8.9218678e-05 0)
(0.028124657 8.8158867e-05 0)
(0.027316964 8.3688506e-05 0)
(0.026604015 7.5911255e-05 0)
(0.025999694 6.511535e-05 0)
(0.025513776 5.1774086e-05 0)
(0.02515106 3.6536688e-05 0)
(0.024910801 2.0197294e-05 0)
(0.024786453 3.652387e-06 0)
(0.024765844 -1.2173961e-05 0)
(0.024831671 -2.6380418e-05 0)
(0.024962524 -3.8162163e-05 0)
(0.025134204 -4.6878169e-05 0)
(0.025321323 -5.2105314e-05 0)
(0.025498734 -5.3657255e-05 0)
(0.025643204 -5.1591244e-05 0)
(0.025734526 -4.6192317e-05 0)
(0.025756563 -3.7880292e-05 0)
(0.025697856 -2.7210712e-05 0)
(0.025551943 -1.4823683e-05 0)
(0.025317359 -1.3989973e-06 0)
(0.02499741 1.2375989e-05 0)
(0.024599753 2.5831293e-05 0)
(0.02413586 3.8334455e-05 0)
(0.023620362 4.930785e-05 0)
(0.023070318 5.8245929e-05 0)
(0.022504412 6.4732106e-05 0)
(0.021942073 6.8464216e-05 0)
(0.021402541 6.9266876e-05 0)
(0.020903943 6.7103901e-05 0)
(0.020462362 6.2096243e-05 0)
(0.020090987 5.4513666e-05 0)
(0.01979942 4.476427e-05 0)
(0.019593123 3.3393873e-05 0)
(0.019473176 2.1035628e-05 0)
(0.019436303 8.3449887e-06 0)
(0.019475156 -4.0236083e-06 0)
(0.019578831 -1.5428866e-05 0)
(0.019733515 -2.5302753e-05 0)
(0.019923324 -3.3192857e-05 0)
(0.020131267 -3.878622e-05 0)
(0.020340286 -4.1927229e-05 0)
(0.020534123 -4.2584928e-05 0)
(0.020698149 -4.0854202e-05 0)
(0.020819915 -3.6934223e-05 0)
(0.020889634 -3.110752e-05 0)
(0.020900404 -2.3709993e-05 0)
(0.020848433 -1.5136776e-05 0)
(0.020733071 -5.8235085e-06 0)
(0.020556734 3.7784808e-06 0)
(0.020324686 1.3216767e-05 0)
(0.020044728 2.2057174e-05 0)
(0.019726791 2.9895766e-05 0)
(0.019382439 3.6379867e-05 0)
(0.019024313 4.1220767e-05 0)
(0.018665514 4.421131e-05 0)
(0.018318955 4.5237921e-05 0)
(0.017996718 4.4287811e-05 0)
(0.017709449 4.1449417e-05 0)
(0.017465823 3.6913881e-05 0)
(0.017272126 3.0957458e-05 0)
(0.01713196 2.3933915e-05 0)
(0.017046148 1.6240341e-05 0)
(0.017012793 8.2902571e-06 0)
(0.017027479 4.9117725e-07 0)
(0.01708363 -6.7728479e-06 0)
(0.017172934 -1.316106e-05 0)
(0.017285834 -1.839624e-05 0)
(0.017412111 -2.2287377e-05 0)
(0.017541435 -2.4719732e-05 0)
(0.017663891 -2.5659484e-05 0)
(0.017770447 -2.5145356e-05 0)
(0.017853306 -2.3274672e-05 0)
(0.017906206 -2.0200374e-05 0)
(0.01792458 -1.6116643e-05 0)
(0.017905702 -1.1251209e-05 0)
(0.017848729 -5.8617729e-06 0)
(0.017754668 -2.1840767e-07 0)
(0.017626253 5.4059995e-06 0)
(0.017467766 1.0748886e-05 0)
(0.017284783 1.556675e-05 0)
(0.017083874 1.964762e-05 0)
(0.016872269 2.2818321e-05 0)
(0.016657492 2.4954839e-05 0)
(0.016446983 2.5985818e-05 0)
(0.016247737 2.5898462e-05 0)
(0.01606597 2.4735659e-05 0)
(0.015906821 2.2595774e-05 0)
(0.015774133 1.962279e-05 0)
(0.015670306 1.5999453e-05 0)
(0.015596222 1.193537e-05 0)
(0.015551276 7.6535952e-06 0)
(0.015533476 3.3763416e-06 0)
(0.015539606 -6.8629211e-07 0)
(0.015565468 -4.3485497e-06 0)
(0.015606137 -7.4534717e-06 0)
(0.015656244 -9.8815755e-06 0)
(0.015710271 -1.1555298e-05 0)
(0.015762827 -1.2437495e-05 0)
(0.015808908 -1.2530547e-05 0)
(0.015844107 -1.1874051e-05 0)
(0.015864785 -1.0539106e-05 0)
(0.015868197 -8.6236941e-06 0)
(0.015852576 -6.247318e-06 0)
(0.015817165 -3.5453497e-06 0)
(0.015762203 -6.6113173e-07 0)
(0.015688864 2.2599029e-06 0)
(0.01559916 5.0772542e-06 0)
(0.015495809 7.6608106e-06 0)
(0.015382076 9.8969257e-06 0)
(0.015261594 1.1692704e-05 0)
(0.015138176 1.2980221e-05 0)
(0.015015621 1.371882e-05 0)
(0.014897532 1.3896471e-05 0)
(0.014787143 1.3529459e-05 0)
(0.014687178 1.2660504e-05 0)
(0.01459974 1.1355715e-05 0)
(0.01452623 9.6998202e-06 0)
(0.014467315 7.7914747e-06 0)
(0.014422926 5.7365577e-06 0)
(0.014392306 3.6431044e-06 0)
(0.014374081 1.6146141e-06 0)
(0.014366361 -2.5409206e-07 0)
(0.014366865 -1.8823976e-06 0)
(0.014373057 -3.205475e-06 0)
(0.014382282 -4.1780598e-06 0)
(0.014391907 -4.7738085e-06 0)
(0.01439944 -4.9870468e-06 0)
(0.014402651 -4.8298957e-06 0)
(0.014399657 -4.3321666e-06 0)
(0.014388996 -3.5371043e-06 0)
(0.014369669 -2.5005545e-06 0)
(0.014341164 -1.2855552e-06 0)
(0.014303453 3.8816522e-08 0)
(0.014256964 1.4031401e-06 0)
(0.014202539 2.7386087e-06 0)
(0.014141371 3.9825022e-06 0)
(0.014074927 5.0784732e-06 0)
(0.014004866 5.9813279e-06 0)
(0.013932945 6.6562273e-06 0)
(0.013860932 7.082401e-06 0)
(0.013790516 7.2509902e-06 0)
(0.013723232 7.1675082e-06 0)
(0.01366039 6.8482846e-06 0)
(0.013603024 6.3217544e-06 0)
(0.013551855 5.623759e-06 0)
(0.013507272 4.798031e-06 0)
(0.013469333 3.8908486e-06 0)
(0.013437775 2.9512729e-06 0)
(0.013412051 2.0257613e-06 0)
(0.01339137 1.1587446e-06 0)
(0.01337475 3.8773396e-07 0)
(0.01336108 -2.5531856e-07 0)
(0.013349178 -7.4807662e-07 0)
(0.013337853 -1.0754686e-06 0)
(0.013325968 -1.2328097e-06 0)
(0.013312486 -1.2224972e-06 0)
(0.013296516 -1.0563068e-06 0)
(0.013277348 -7.5135349e-07 0)
(0.013254473 -3.3177652e-07 0)
(0.013227598 1.7561953e-07 0)
(0.013196645 7.4048383e-07 0)
(0.013161743 1.3316749e-06 0)
(0.01312319 1.9234655e-06 0)
(0.013081498 2.4741336e-06 0)
(0.01303705 3.0292271e-06 0)
(0.012991142 3.3638017e-06 0)
(0.012941565 4.4391048e-06 0)
(0.012898074 2.915591e-06 0)
(0.012811573 1.5059255e-05 0)
(0.10713118 -0.021270629 0)
(0.13831839 -0.033482163 0)
(0.15789175 -0.029441158 0)
(0.17736097 -0.018702278 0)
(0.1895009 -0.0089905968 0)
(0.19369611 -0.002577408 0)
(0.19268076 0.00099145861 0)
(0.18850409 0.0027401651 0)
(0.1823198 0.0034602967 0)
(0.17505365 0.0036163109 0)
(0.16742745 0.0034722523 0)
(0.15992442 0.0031811888 0)
(0.1528344 0.0028296413 0)
(0.1463144 0.0024666391 0)
(0.14042949 0.0021218163 0)
(0.13517944 0.0018137246 0)
(0.13051893 0.001553231 0)
(0.12637364 0.0013453454 0)
(0.12265323 0.0011904492 0)
(0.11926208 0.0010851932 0)
(0.11610821 0.001023312 0)
(0.11311037 0.00099649629 0)
(0.11020295 0.00099531884 0)
(0.10733881 0.0010101264 0)
(0.10448987 0.0010317933 0)
(0.10164617 0.0010522711 0)
(0.098813542 0.0010649124 0)
(0.096010709 0.0010646034 0)
(0.093265962 0.0010477562 0)
(0.090613922 0.0010122344 0)
(0.088092444 0.00095725057 0)
(0.085739761 0.00088327798 0)
(0.083591865 0.00079196799 0)
(0.081680118 0.00068607308 0)
(0.0800291 0.00056934138 0)
(0.078654735 0.00044637481 0)
(0.077562763 0.00032240465 0)
(0.076747742 0.00020299336 0)
(0.076192634 9.3718229e-05 0)
(0.07586913 -1.5852423e-07 0)
(0.075738291 -7.416877e-05 0)
(0.075752502 -0.00012506106 0)
(0.075858963 -0.00015105518 0)
(0.076002843 -0.00015191637 0)
(0.076129946 -0.00012886286 0)
(0.076191141 -8.4547184e-05 0)
(0.076142667 -2.2481971e-05 0)
(0.07594999 5.2879724e-05 0)
(0.075589116 0.00013660487 0)
(0.075047165 0.00022364841 0)
(0.074322283 0.00030912048 0)
(0.073423018 0.00038849987 0)
(0.072367257 0.00045778337 0)
(0.071180866 0.00051360359 0)
(0.069896128 0.00055331138 0)
(0.068550025 0.00057505033 0)
(0.067182442 0.00057780849 0)
(0.065834282 0.00056147151 0)
(0.064545553 0.00052684094 0)
(0.063353498 0.00047561735 0)
(0.062290793 0.00041034872 0)
(0.061383922 0.00033432245 0)
(0.060651852 0.00025137676 0)
(0.060104911 0.00016573734 0)
(0.059744327 8.1741672e-05 0)
(0.059562188 3.5767564e-06 0)
(0.059541986 -6.5117315e-05 0)
(0.059659559 -0.00012122604 0)
(0.059884832 -0.00016234636 0)
(0.060183452 -0.00018697602 0)
(0.060518847 -0.00019459192 0)
(0.060854422 -0.00018566696 0)
(0.061155361 -0.00016148802 0)
(0.06139059 -0.00012409527 0)
(0.06153402 -7.6055356e-05 0)
(0.061565247 -2.0110846e-05 0)
(0.061469852 4.0755425e-05 0)
(0.061240628 0.00010339407 0)
(0.060877256 0.0001647025 0)
(0.060386025 0.00022176237 0)
(0.059779276 0.00027194264 0)
(0.059074623 0.00031299534 0)
(0.058293997 0.00034313528 0)
(0.057462544 0.00036111308 0)
(0.056607401 0.00036626688 0)
(0.055756398 0.00035855984 0)
(0.054936726 0.00033858631 0)
(0.054173635 0.00030754912 0)
(0.053489214 0.00026719819 0)
(0.052901332 0.00021973752 0)
(0.052422804 0.00016769815 0)
(0.052060775 0.00011379756 0)
(0.051816525 6.0763463e-05 0)
(0.05168551 1.1202677e-05 0)
(0.051657891 -3.2627437e-05 0)
(0.051719084 -6.8844375e-05 0)
(0.051850873 -9.601625e-05 0)
(0.052032436 -0.00011324064 0)
(0.052241585 -0.00012019079 0)
(0.052455933 -0.00011706458 0)
(0.052654083 -0.0001045667 0)
(0.052816636 -8.382499e-05 0)
(0.052926947 -5.6281247e-05 0)
(0.052971934 -2.3601474e-05 0)
(0.052941888 1.2474531e-05 0)
(0.052831348 5.0073606e-05 0)
(0.052638996 8.7328567e-05 0)
(0.052367532 0.00012246835 0)
(0.052023369 0.00015388824 0)
(0.051616187 0.00018021275 0)
(0.051158361 0.00020034724 0)
(0.050664297 0.00021352098 0)
(0.050149691 0.00021931522 0)
(0.049630748 0.00021767843 0)
(0.04912339 0.0002089219 0)
(0.048642503 0.00019370026 0)
(0.048201232 0.00017297054 0)
(0.04781039 0.00014793792 0)
(0.047477993 0.00011998254 0)
(0.047208954 9.0581438e-05 0)
(0.047004948 6.122575e-05 0)
(0.046864451 3.3336733e-05 0)
(0.046782956 8.2016504e-06 0)
(0.046753328 -1.3105331e-05 0)
(0.046766276 -2.9765087e-05 0)
(0.046810978 -4.1225319e-05 0)
(0.046875682 -4.7221507e-05 0)
(0.046948349 -4.7776995e-05 0)
(0.047017244 -4.3178488e-05 0)
(0.047071524 -3.3953676e-05 0)
(0.047101708 -2.0818214e-05 0)
(0.047099989 -4.6109665e-06 0)
(0.047060505 1.3722969e-05 0)
(0.046979592 3.3181697e-05 0)
(0.046855808 5.2761917e-05 0)
(0.046689885 7.1506034e-05 0)
(0.046484588 8.8541124e-05 0)
(0.046244479 0.00010311554 0)
(0.045975623 0.00011462622 0)
(0.045685233 0.00012264221 0)
(0.045381275 0.00012691665 0)
(0.045072057 0.00012739388 0)
(0.044765818 0.00012420358 0)
(0.044470332 0.00011765001 0)
(0.044192549 0.00010818877 0)
(0.043938295 9.6400285e-05 0)
(0.043712029 8.2953355e-05 0)
(0.043516688 6.8569178e-05 0)
(0.043353611 5.3980019e-05 0)
(0.043222548 3.9892416e-05 0)
(0.043121751 2.6950402e-05 0)
(0.043048136 1.5707508e-05 0)
(0.042997509 6.6016414e-06 0)
(0.042964824 -5.9227679e-08 0)
(0.042944494 -4.1060847e-06 0)
(0.042930687 -5.5067355e-06 0)
(0.042917626 -4.3605025e-06 0)
(0.042899872 -8.8351129e-07 0)
(0.042872565 4.6078961e-06 0)
(0.042831622 1.1719431e-05 0)
(0.042773895 2.0001398e-05 0)
(0.042697265 2.8974635e-05 0)
(0.042600686 3.8153503e-05 0)
(0.042484174 4.7070225e-05 0)
(0.042348744 5.5294507e-05 0)
(0.042196311 6.2452974e-05 0)
(0.042029546 6.824249e-05 0)
(0.041851709 7.2442289e-05 0)
(0.04166646 7.4919121e-05 0)
(0.041477663 7.563079e-05 0)
(0.041289186 7.46225e-05 0)
(0.041104715 7.2021868e-05 0)
(0.040927582 6.802734e-05 0)
(0.040760623 6.2896316e-05 0)
(0.040606059 5.6928065e-05 0)
(0.040465427 5.0448009e-05 0)
(0.040339531 4.3788707e-05 0)
(0.040228449 3.727411e-05 0)
(0.040131563 3.120246e-05 0)
(0.04004763 2.5834072e-05 0)
(0.039974878 2.1379245e-05 0)
(0.03991112 1.7991985e-05 0)
(0.039853885 1.5764539e-05 0)
(0.03980056 1.4727845e-05 0)
(0.039748517 1.485263e-05 0)
(0.039695247 1.6055818e-05 0)
(0.039638472 1.8206797e-05 0)
(0.039576243 2.1137944e-05 0)
(0.03950701 2.4653921e-05 0)
(0.039429673 2.8544072e-05 0)
(0.039343609 3.2592321e-05 0)
(0.039248667 3.6590043e-05 0)
(0.039145157 4.0342633e-05 0)
(0.039033759 4.369128e-05 0)
(0.038915613 4.6486816e-05 0)
(0.03879165 4.8753969e-05 0)
(0.038664648 5.0226643e-05 0)
(0.038530739 5.2575836e-05 0)
(0.038411085 5.2437468e-05 0)
(0.038215808 7.8496137e-05 0)
(0.42808346 -0.015790035 0)
(0.39695144 -0.028817787 0)
(0.37438943 -0.026192432 0)
(0.36182026 -0.017864556 0)
(0.35368264 -0.0091664996 0)
(0.34648046 -0.0018577254 0)
(0.33911133 0.003583976 0)
(0.33114956 0.0072419816 0)
(0.32246146 0.0094400888 0)
(0.31315039 0.010529303 0)
(0.30346762 0.010812866 0)
(0.29369094 0.010541042 0)
(0.28406596 0.0099151509 0)
(0.27478751 0.0090920212 0)
(0.26599162 0.008190536 0)
(0.25775319 0.0072982977 0)
(0.25009062 0.0064768842 0)
(0.24297545 0.0057658341 0)
(0.23634491 0.005185887 0)
(0.23011572 0.0047419105 0)
(0.22419765 0.0044258736 0)
(0.2185055 0.0042200639 0)
(0.21296838 0.0041004861 0)
(0.20753569 0.0040401705 0)
(0.20217976 0.0040120672 0)
(0.19689564 0.0039912805 0)
(0.19169862 0.003956552 0)
(0.18662048 0.0038910522 0)
(0.18170483 0.0037826367 0)
(0.17700245 0.0036237612 0)
(0.17256664 0.0034112236 0)
(0.16844908 0.003145853 0)
(0.16469601 0.0028321952 0)
(0.16134497 0.0024781889 0)
(0.15842208 0.0020947972 0)
(0.15593984 0.001695536 0)
(0.15389556 0.0012958311 0)
(0.15227061 0.00091218957 0)
(0.15103039 0.00056125805 0)
(0.15012548 0.00025874368 0)
(0.14949378 1.8122963e-05 0)
(0.14906327 -0.00015069061 0)
(0.14875594 -0.00024218202 0)
(0.1484921 -0.0002553917 0)
(0.14819481 -0.00019392752 0)
(0.14779444 -6.5374982e-05 0)
(0.14723211 0.00011901916 0)
(0.14646294 0.00034534368 0)
(0.14545751 0.00059821729 0)
(0.1442026 0.00086186018 0)
(0.14270089 0.0011209778 0)
(0.14096986 0.00136145 0)
(0.13904002 0.0015708391 0)
(0.13695271 0.0017387467 0)
(0.13475758 0.001857069 0)
(0.1325099 0.0019201814 0)
(0.13026774 0.0019250739 0)
(0.12808916 0.0018714556 0)
(0.12602943 0.0017617807 0)
(0.12413841 0.0016011952 0)
(0.12245812 0.0013973672 0)
(0.12102078 0.0011601573 0)
(0.11984723 0.00090120113 0)
(0.11894568 0.00063327626 0)
(0.11831179 0.00036974937 0)
(0.11792877 0.0001237194 0)
(0.11776786 -9.2945342e-05 0)
(0.11778974 -0.00027051558 0)
(0.11794829 -0.00040163207 0)
(0.11819295 -0.00048169315 0)
(0.11847153 -0.00050913103 0)
(0.11873299 -0.0004853721 0)
(0.11892968 -0.0004144019 0)
(0.11902039 -0.00030215698 0)
(0.11896976 -0.00015592928 0)
(0.11875139 1.5670613e-05 0)
(0.11834883 0.00020304043 0)
(0.11775576 0.00039626132 0)
(0.11697573 0.00058563442 0)
(0.1160216 0.00076206236 0)
(0.11491458 0.00091737542 0)
(0.11368294 0.0010446113 0)
(0.11236051 0.0011382526 0)
(0.11098495 0.0011944267 0)
(0.10959593 0.001211058 0)
(0.10823318 0.001187958 0)
(0.10693463 0.0011268513 0)
(0.1057346 0.0010313001 0)
(0.10466215 0.00090654426 0)
(0.10373977 0.00075922618 0)
(0.10298235 0.00059704451 0)
(0.10239654 0.00042831762 0)
(0.10198072 0.00026153695 0)
(0.10172524 0.00010484372 0)
(0.10161309 -3.4411702e-05 0)
(0.10162073 -0.00015019237 0)
(0.10172014 -0.00023793807 0)
(0.10188038 -0.00029474311 0)
(0.10206932 -0.0003194767 0)
(0.10225515 -0.00031270918 0)
(0.10240812 -0.00027659457 0)
(0.10250161 -0.00021450907 0)
(0.10251336 -0.00013074333 0)
(0.10242565 -3.0262333e-05 0)
(0.10222674 8.1314347e-05 0)
(0.10191094 0.00019807502 0)
(0.10147858 0.00031415639 0)
(0.10093565 0.00042399703 0)
(0.10029337 0.00052255704 0)
(0.099567394 0.00060550831 0)
(0.098776954 0.00066939506 0)
(0.097943806 0.00071175882 0)
(0.097091134 0.0007312257 0)
(0.096242402 0.00072754795 0)
(0.095420221 0.00070159717 0)
(0.094645283 0.00065530327 0)
(0.093935415 0.00059154166 0)
(0.093304794 0.00051396894 0)
(0.092763374 0.00042681346 0)
(0.092316533 0.00033463897 0)
(0.091964973 0.00024209217 0)
(0.091704885 0.000153655 0)
(0.091528288 7.3404022e-05 0)
(0.091423722 4.8266743e-06 0)
(0.091376753 -4.9381385e-05 0)
(0.091371015 -8.7410127e-05 0)
(0.091389147 -0.0001083637 0)
(0.091413698 -0.0001122369 0)
(0.091427934 -9.9847064e-05 0)
(0.091416674 -7.2740091e-05 0)
(0.091366672 -3.3040844e-05 0)
(0.091267405 1.6628723e-05 0)
(0.091111373 7.3296211e-05 0)
(0.090894298 0.0001338154 0)
(0.090615149 0.00019502928 0)
(0.090276024 0.00025391238 0)
(0.089881899 0.00030769913 0)
(0.089440255 0.00035399451 0)
(0.088960604 0.00039086545 0)
(0.088453949 0.00041690896 0)
(0.08793219 0.00043129624 0)
(0.087407525 0.00043378989 0)
(0.086891842 0.00042473422 0)
(0.086396167 0.00040501818 0)
(0.085930163 0.00037601287 0)
(0.085501721 0.00033948619 0)
(0.085116652 0.00029749914 0)
(0.084778493 0.00025228986 0)
(0.084488441 0.000206152 0)
(0.084245404 0.00016131417 0)
(0.084046166 0.0001198287 0)
(0.083885647 8.3475172e-05 0)
(0.083757259 5.3682954e-05 0)
(0.083653301 3.1477265e-05 0)
(0.083565396 1.7451775e-05 0)
(0.083484944 1.1765346e-05 0)
(0.083403549 1.4159951e-05 0)
(0.083313414 2.3999682e-05 0)
(0.083207692 4.032544e-05 0)
(0.083080754 6.1921377e-05 0)
(0.082928398 8.7389017e-05 0)
(0.082747964 0.00011522554 0)
(0.082538378 0.00014390081 0)
(0.082300114 0.00017193104 0)
(0.082035085 0.00019794555 0)
(0.081746473 0.00022074491 0)
(0.081438506 0.00023934798 0)
(0.081116204 0.00025302703 0)
(0.080785087 0.00026132926 0)
(0.080450891 0.00026408514 0)
(0.080119272 0.00026140263 0)
(0.07979554 0.00025364888 0)
(0.079484415 0.00024141978 0)
(0.079189831 0.00022549994 0)
(0.078914779 0.00020681454 0)
(0.078661211 0.00018637669 0)
(0.078430002 0.00016523229 0)
(0.078220957 0.00014440625 0)
(0.078032882 0.00012485213 0)
(0.077863695 0.00010740856 0)
(0.077710573 9.276354e-05 0)
(0.077570135 8.1429102e-05 0)
(0.077438635 7.3725968e-05 0)
(0.077312163 6.9779468e-05 0)
(0.077186846 6.9525094e-05 0)
(0.077059031 7.2723718e-05 0)
(0.07692545 7.8984e-05 0)
(0.07678335 8.7791333e-05 0)
(0.076630596 9.8540365e-05 0)
(0.076465735 0.00011057049 0)
(0.076288024 0.00012320082 0)
(0.076097418 0.00013576656 0)
(0.075894539 0.00014764611 0)
(0.075680549 0.00015831156 0)
(0.075457276 0.00016728736 0)
(0.07522625 0.00017445827 0)
(0.074991844 0.00017913116 0)
(0.074748758 0.00018405633 0)
(0.074531975 0.000181278 0)
(0.074209008 0.00021862146 0)
(0.43727408 -0.0076224992 0)
(0.42876955 -0.011618643 0)
(0.41942415 -0.0074905173 0)
(0.41263942 -0.0013103389 0)
(0.40811632 0.0045656716 0)
(0.40489186 0.009607604 0)
(0.40211394 0.013624394 0)
(0.39922016 0.016547314 0)
(0.39584724 0.018462403 0)
(0.39183413 0.01951802 0)
(0.38719515 0.019858621 0)
(0.38204647 0.019621875 0)
(0.3765447 0.018946438 0)
(0.37085009 0.017969956 0)
(0.36510175 0.016822963 0)
(0.35940053 0.015622919 0)
(0.35380055 0.014468654 0)
(0.3483098 0.01343554 0)
(0.342898 0.012572329 0)
(0.33750954 0.011900421 0)
(0.33207881 0.01141586 0)
(0.32654518 0.011093806 0)
(0.32086522 0.01089473 0)
(0.31502061 0.010771221 0)
(0.30902137 0.010674357 0)
(0.30290478 0.010558838 0)
(0.29673112 0.010386558 0)
(0.29057728 0.010128619 0)
(0.28452969 0.0097660757 0)
(0.2786772 0.0092898018 0)
(0.27310466 0.0086998231 0)
(0.2678876 0.008004402 0)
(0.26308802 0.0072190222 0)
(0.25875137 0.0063653242 0)
(0.25490462 0.0054699752 0)
(0.25155529 0.0045634164 0)
(0.24869144 0.0036784165 0)
(0.24628235 0.0028484007 0)
(0.24428006 0.0021055753 0)
(0.24262171 0.001478907 0)
(0.24123263 0.00099205874 0)
(0.24003007 0.00066149007 0)
(0.23892749 0.0004950478 0)
(0.23783925 0.00049130129 0)
(0.23668557 0.00063962322 0)
(0.23539705 0.00092106244 0)
(0.23391855 0.0013098661 0)
(0.23221182 0.0017754568 0)
(0.2302569 0.0022847115 0)
(0.22805233 0.0028041377 0)
(0.22561416 0.0033017633 0)
(0.22297397 0.0037486473 0)
(0.2201762 0.004120004 0)
(0.21727502 0.0043959861 0)
(0.21433086 0.0045621972 0)
(0.21140692 0.0046099947 0)
(0.20856571 0.0045366201 0)
(0.20586583 0.004345179 0)
(0.20335908 0.0040444305 0)
(0.201088 0.0036483709 0)
(0.19908403 0.0031756095 0)
(0.19736615 0.0026484679 0)
(0.19594026 0.0020918793 0)
(0.19479931 0.0015321933 0)
(0.19392364 0.00099574766 0)
(0.19328285 0.00050756793 0)
(0.19283788 9.0077501e-05 0)
(0.19254179 -0.00023884354 0)
(0.19234232 -0.00046710479 0)
(0.19218585 -0.0005885417 0)
(0.19201972 -0.00060270827 0)
(0.1917953 -0.00051440226 0)
(0.19146835 -0.00033310372 0)
(0.19100194 -7.2093068e-05 0)
(0.19036849 0.00025184496 0)
(0.18955086 0.00061940938 0)
(0.18854254 0.0010100288 0)
(0.18734744 0.0014029599 0)
(0.18597938 0.0017782614 0)
(0.18446104 0.002117621 0)
(0.18282258 0.0024050576 0)
(0.18109992 0.0026275028 0)
(0.1793328 0.0027752642 0)
(0.17756274 0.002842371 0)
(0.17583089 0.0028267805 0)
(0.17417602 0.0027304354 0)
(0.17263264 0.0025591508 0)
(0.17122939 0.0023223122 0)
(0.16998776 0.0020323858 0)
(0.16892128 0.0017042617 0)
(0.168035 0.0013544393 0)
(0.16732568 0.0010001467 0)
(0.16678214 0.00065839872 0)
(0.16638616 0.00034510487 0)
(0.166114 7.4292337e-05 0)
(0.16593707 -0.00014281711 0)
(0.16582371 -0.00029850376 0)
(0.16574124 -0.00038862948 0)
(0.16565763 -0.00041250854 0)
(0.16554269 -0.00037266453 0)
(0.16536973 -0.00027440489 0)
(0.16511543 -0.0001254169 0)
(0.16476198 6.4656641e-05 0)
(0.16429741 0.00028453102 0)
(0.16371602 0.00052200897 0)
(0.16301826 0.00076462527 0)
(0.16221043 0.0010002424 0)
(0.16130425 0.0012175758 0)
(0.16031603 0.0014066528 0)
(0.15926577 0.0015592003 0)
(0.15817605 0.0016689534 0)
(0.15707083 0.0017318759 0)
(0.15597428 0.0017462853 0)
(0.15490952 0.0017128735 0)
(0.15389754 0.001634619 0)
(0.15295626 0.0015165897 0)
(0.15209974 0.0013656418 0)
(0.15133764 0.0011900307 0)
(0.15067491 0.00099894558 0)
(0.15011176 0.00080200748 0)
(0.14964389 0.00060875518 0)
(0.14926285 0.00042814759 0)
(0.14895669 0.00026813204 0)
(0.14871072 0.00013525111 0)
(0.14850838 3.4401903e-05 0)
(0.14833203 -3.1412106e-05 0)
(0.14816389 -6.1092926e-05 0)
(0.14798684 -5.5346529e-05 0)
(0.14778523 -1.6525629e-05 0)
(0.14754557 5.1593794e-05 0)
(0.14725704 0.00014401336 0)
(0.14691193 0.00025482584 0)
(0.14650576 0.00037755596 0)
(0.14603741 0.00050549985 0)
(0.14550896 0.0006320506 0)
(0.14492549 0.00075099731 0)
(0.14429465 0.00085678954 0)
(0.14362624 0.00094476024 0)
(0.14293162 0.0010113006 0)
(0.14222306 0.0010539819 0)
(0.14151315 0.001071621 0)
(0.14081415 0.001064287 0)
(0.14013742 0.0010332492 0)
(0.13949287 0.00098087066 0)
(0.1388886 0.00091044988 0)
(0.13833053 0.00082602192 0)
(0.13782226 0.00073212761 0)
(0.13736498 0.00063356477 0)
(0.13695753 0.00053513518 0)
(0.1365966 0.00044140158 0)
(0.13627696 0.00035646827 0)
(0.13599188 0.00028379654 0)
(0.13573344 0.00022606341 0)
(0.13549306 0.00018506945 0)
(0.13526189 0.00016169802 0)
(0.13503127 0.00015592414 0)
(0.13479314 0.00016686871 0)
(0.13454038 0.00019289231 0)
(0.13426708 0.00023172032 0)
(0.13396879 0.00028059054 0)
(0.13364265 0.00033641482 0)
(0.13328743 0.0003959456 0)
(0.13290348 0.0004559396 0)
(0.13249269 0.00051331115 0)
(0.13205825 0.00056526954 0)
(0.13160449 0.00060943497 0)
(0.13113656 0.00064392967 0)
(0.13066015 0.00066744105 0)
(0.13018122 0.00067925578 0)
(0.12970566 0.00067926392 0)
(0.12923899 0.00066793454 0)
(0.12878616 0.00064626458 0)
(0.1283513 0.00061570443 0)
(0.12793757 0.00057806461 0)
(0.12754706 0.00053540894 0)
(0.12718075 0.00048993987 0)
(0.12683848 0.00044388253 0)
(0.12651909 0.00039937312 0)
(0.12622045 0.00035835786 0)
(0.1259397 0.00032250662 0)
(0.12567334 0.00029314579 0)
(0.12541749 0.00027121197 0)
(0.12516809 0.00025722853 0)
(0.12492107 0.00025130409 0)
(0.1246726 0.00025315212 0)
(0.12441919 0.00026212879 0)
(0.12415791 0.0002772864 0)
(0.12388642 0.00029743801 0)
(0.12360312 0.00032123004 0)
(0.12330711 0.00034721824 0)
(0.12299825 0.00037394279 0)
(0.12267708 0.00040000285 0)
(0.12234478 0.00042411233 0)
(0.12200301 0.00044519212 0)
(0.12165412 0.00046228883 0)
(0.12129962 0.00047509012 0)
(0.12094573 0.00048220191 0)
(0.12058152 0.00048771415 0)
(0.1202665 0.00047749796 0)
(0.1197862 0.00050759863 0)
(0.43842308 -0.0025167635 0)
(0.43468305 -0.0049002908 0)
(0.42918442 -0.0037073376 0)
(0.42467716 -0.00043213062 0)
(0.42199304 0.0036986226 0)
(0.42046241 0.0080273101 0)
(0.41938248 0.01209743 0)
(0.41838763 0.015578384 0)
(0.41726076 0.018298857 0)
(0.41586374 0.020210048 0)
(0.4141547 0.021333959 0)
(0.41217196 0.021743057 0)
(0.40999592 0.021552291 0)
(0.4077193 0.020906788 0)
(0.40542669 0.019966615 0)
(0.4031779 0.018892009 0)
(0.40099566 0.017829483 0)
(0.39886026 0.016899063 0)
(0.39671223 0.016184136 0)
(0.3944625 0.015725732 0)
(0.39200795 0.015522484 0)
(0.38924909 0.015536283 0)
(0.38610645 0.015702266 0)
(0.38253269 0.015940906 0)
(0.37851897 0.016169875 0)
(0.37409543 0.016313874 0)
(0.36932661 0.01631149 0)
(0.36430356 0.016118962 0)
(0.3591342 0.015711327 0)
(0.35393351 0.015081643 0)
(0.34881465 0.014239068 0)
(0.34388164 0.013206371 0)
(0.33922388 0.012017315 0)
(0.33491254 0.010714102 0)
(0.33099838 0.009344976 0)
(0.32751083 0.0079619315 0)
(0.32445793 0.0066184383 0)
(0.32182681 0.0053670788 0)
(0.31958472 0.0042570114 0)
(0.31768069 0.003331251 0)
(0.31604793 0.0026239133 0)
(0.31460728 0.0021576872 0)
(0.31327172 0.0019418851 0)
(0.31195189 0.0019714356 0)
(0.31056233 0.0022270257 0)
(0.30902765 0.0026765134 0)
(0.3072879 0.0032774835 0)
(0.3053025 0.0039806097 0)
(0.30305226 0.0047333658 0)
(0.30053954 0.0054835873 0)
(0.29778665 0.0061825496 0)
(0.29483285 0.0067873904 0)
(0.29173054 0.0072628437 0)
(0.28854087 0.0075823478 0)
(0.28532936 0.0077286319 0)
(0.28216169 0.0076938808 0)
(0.27909996 0.0074795561 0)
(0.27619957 0.0070959159 0)
(0.27350675 0.006561256 0)
(0.27105681 0.0059008648 0)
(0.26887309 0.0051457208 0)
(0.2669665 0.0043309596 0)
(0.26533564 0.0034941162 0)
(0.26396735 0.0026732874 0)
(0.26283779 0.0019052656 0)
(0.26191369 0.0012236388 0)
(0.26115427 0.00065719453 0)
(0.26051365 0.00022835879 0)
(0.25994257 -4.8466911e-05 0)
(0.25939026 -0.00016744691 0)
(0.2588071 -0.00013093707 0)
(0.25814731 5.1281252e-05 0)
(0.25737173 0.0003626111 0)
(0.25645 0.000780578 0)
(0.25536183 0.0012783075 0)
(0.25409768 0.0018260878 0)
(0.25265886 0.0023930255 0)
(0.25105696 0.002948626 0)
(0.24931279 0.003464218 0)
(0.24745486 0.0039141862 0)
(0.24551748 0.004276995 0)
(0.2435387 0.0045359949 0)
(0.24155808 0.0046800097 0)
(0.23961462 0.0047036907 0)
(0.23774472 0.0046076272 0)
(0.23598044 0.0043982012 0)
(0.23434809 0.0040871726 0)
(0.23286718 0.0036910122 0)
(0.23154973 0.0032299912 0)
(0.23040011 0.0027270757 0)
(0.2294151 0.0022066959 0)
(0.22858446 0.0016934327 0)
(0.22789169 0.0012107562 0)
(0.2273151 0.00077986273 0)
(0.2268291 0.0004186103 0)
(0.22640576 0.00014077844 0)
(0.2260159 -4.4787218e-05 0)
(0.22563032 -0.00013434905 0)
(0.22522114 -0.000128984 0)
(0.22476311 -3.4183534e-05 0)
(0.22423479 0.00014075928 0)
(0.22361969 0.00038311295 0)
(0.22290685 0.00067750106 0)
(0.22209102 0.001006762 0)
(0.22117273 0.0013528322 0)
(0.22015795 0.001697641 0)
(0.21905765 0.0020239456 0)
(0.21788702 0.0023160853 0)
(0.21666456 0.0025606343 0)
(0.21541103 0.0027469344 0)
(0.21414829 0.0028674936 0)
(0.2128982 0.002918235 0)
(0.21168146 0.0028985856 0)
(0.21051669 0.0028114013 0)
(0.20941953 0.0026627267 0)
(0.20840202 0.0024614022 0)
(0.20747216 0.0022185358 0)
(0.20663374 0.0019468696 0)
(0.20588632 0.0016600761 0)
(0.2052255 0.0013720257 0)
(0.20464328 0.0010960704 0)
(0.20412868 0.00084438601 0)
(0.20366837 0.00062740908 0)
(0.20324744 0.00045338935 0)
(0.20285017 0.00032808017 0)
(0.20246079 0.00025457207 0)
(0.20206419 0.00023328286 0)
(0.20164664 0.00026209436 0)
(0.20119632 0.00033660144 0)
(0.20070383 0.00045045056 0)
(0.20016253 0.00059573954 0)
(0.19956871 0.00076346729 0)
(0.19892162 0.00094401743 0)
(0.1982234 0.0011276416 0)
(0.19747881 0.0013049221 0)
(0.1966949 0.0014671953 0)
(0.19588058 0.0016069204 0)
(0.19504605 0.0017179816 0)
(0.19420233 0.0017959134 0)
(0.19336057 0.0018380409 0)
(0.19253158 0.0018435331 0)
(0.19172527 0.0018133656 0)
(0.19095022 0.0017501991 0)
(0.19021332 0.0016581795 0)
(0.1895195 0.0015426713 0)
(0.18887161 0.0014099401 0)
(0.18827037 0.0012668021 0)
(0.18771448 0.0011202591 0)
(0.18720073 0.00097714154 0)
(0.1867243 0.00084377542 0)
(0.1862791 0.00072569275 0)
(0.18585804 0.00062739739 0)
(0.1854535 0.00055219608 0)
(0.18505771 0.00050209983 0)
(0.18466306 0.00047779645 0)
(0.18426253 0.00047869065 0)
(0.18384994 0.00050300509 0)
(0.1834202 0.00054793335 0)
(0.18296953 0.00060983345 0)
(0.18249551 0.00068444982 0)
(0.18199719 0.0007671514 0)
(0.18147501 0.00085317361 0)
(0.18093072 0.00093785284 0)
(0.18036723 0.0010168432 0)
(0.17978843 0.001086307 0)
(0.1791989 0.0011430709 0)
(0.17860369 0.0011847439 0)
(0.17800806 0.0012097915 0)
(0.17741714 0.0012175664 0)
(0.17683578 0.0012082951 0)
(0.17626825 0.0011830228 0)
(0.17571808 0.0011435213 0)
(0.17518797 0.001092166 0)
(0.17467965 0.0010317887 0)
(0.17419384 0.00096551518 0)
(0.17373032 0.00089659645 0)
(0.17328797 0.0008282421 0)
(0.17286484 0.00076346464 0)
(0.17245833 0.0007049421 0)
(0.17206533 0.00065490485 0)
(0.1716824 0.00061505125 0)
(0.17130594 0.00058649465 0)
(0.17093239 0.0005697426 0)
(0.17055837 0.00056470732 0)
(0.17018084 0.00057074496 0)
(0.16979723 0.00058671982 0)
(0.16940551 0.00061108878 0)
(0.16900429 0.00064200059 0)
(0.16859281 0.00067740393 0)
(0.16817095 0.00071515915 0)
(0.16773921 0.00075314616 0)
(0.16729861 0.00078936957 0)
(0.16685068 0.0008220349 0)
(0.16639718 0.00084966959 0)
(0.16594062 0.00087100622 0)
(0.16548177 0.00088563544 0)
(0.16502854 0.00089176947 0)
(0.16456236 0.0008942057 0)
(0.16416898 0.00087738856 0)
(0.16354635 0.00089056774 0)
(0.43866207 -0.00081381338 0)