/*--------------------------------*- C++ -*----------------------------------*\
| =========                 |                                                 |
| \\      /  F ield         | OpenFOAM: The Open Source CFD Toolbox           |
|  \\    /   O peration     | Version:  2406                                  |
|   \\  /    A nd           | Website:  www.openfoam.com                      |
|    \\/     M anipulation  |                                                 |
\*---------------------------------------------------------------------------*/
FoamFile
{
    version     2.0;
    format      ascii;
    arch        "LSB;label=32;scalar=64";
    class       volScalarField;
    location    "1428";
    object      T;
}
// * * * * * * * * * * * * * * * * * * * * * * * * * * * * * * * * * * * * * //

dimensions      [0 0 0 0 0 0 0];

internalField   nonuniform List<scalar> 
9000
(
1
1
1
1
1
1
1
1
1
1
1
1
1
1
1
1
1
1
1
1
1
1
1
1
1
1
1
1
1
1
1
1
1
1
1
1
1
1
1
1
1
0.99999999
0.99999999
0.99999999
0.99999999
0.99999999
0.99999999
0.99999999
0.99999999
0.99999999
0.99999999
0.99999999
0.99999999
0.99999999
0.99999999
0.99999999
0.99999999
0.99999999
0.99999999
0.99999999
0.99999999
0.99999999
0.99999999
0.99999999
0.99999999
0.99999999
0.99999999
0.99999999
0.99999999
0.99999999
0.99999999
0.99999999
0.99999999
0.99999999
0.99999999
0.99999999
0.99999999
0.99999999
0.99999999
0.99999999
0.99999999
0.99999999
0.99999999
0.99999999
0.99999999
0.99999999
0.99999999
0.99999999
0.99999999
0.99999999
0.99999999
0.99999999
0.99999999
0.99999999
0.99999999
0.99999999
0.99999999
0.99999999
0.99999999
0.99999999
0.99999999
0.99999999
0.99999999
0.99999999
0.99999999
0.99999999
0.99999999
0.99999999
0.99999999
0.99999999
0.99999999
0.99999999
0.99999999
0.99999999
0.99999999
0.99999999
0.99999999
0.99999999
0.99999999
0.99999999
0.99999999
0.99999999
0.99999999
0.99999999
0.99999999
0.99999999
0.99999999
0.99999999
0.99999999
0.99999999
0.99999999
0.99999999
0.99999999
0.99999999
0.99999999
0.99999999
0.99999999
0.99999999
0.99999999
0.99999999
0.99999999
0.99999999
0.99999999
0.99999999
0.99999999
0.99999999
0.99999999
0.99999999
0.99999999
0.99999999
0.99999999
0.99999999
0.99999999
0.99999999
0.99999999
0.99999999
0.99999999
0.99999999
0.99999999
0.99999999
0.99999999
0.99999999
0.99999999
0.99999999
0.99999999
0.99999999
0.99999999
0.99999999
0.99999999
0.99999999
0.99999999
0.99999999
0.99999999
0.99999999
0.99999999
0.99999999
0.99999999
0.99999999
0.99999999
0.99999999
0.99999999
0.99999999
0.99999999
0.99999999
0.99999999
0.99999999
0.99999999
0.99999999
0.99999999
0.99999999
0.99999999
0.99999999
0.99999999
0.99999999
0.99999999
0.99999999
0.99999999
0.99999999
0.99999999
0.99999999
1
1
1
1
1
1
1
1
1
1
1
1
1
1
1
1
1
1
1
1
1
1
1
1
1
1
1
1
0.99999999
0.99999999
0.99999999
0.99999999
0.99999999
0.99999999
0.99999999
0.99999999
0.99999999
0.99999999
0.99999999
0.99999999
0.99999999
0.99999999
0.99999999
0.99999999
0.99999999
0.99999999
0.99999999
0.99999999
0.99999999
0.99999999
0.99999999
0.99999999
0.99999999
0.99999999
0.99999999
0.99999999
0.99999999
0.99999999
0.99999999
0.99999999
0.99999999
0.99999999
0.99999999
0.99999999
0.99999999
0.99999999
0.99999999
0.99999999
0.99999999
0.99999999
0.99999999
0.99999999
0.99999999
0.99999999
0.99999999
0.99999999
0.99999999
0.99999999
0.99999999
0.99999999
0.99999999
0.99999999
0.99999999
0.99999999
0.99999999
0.99999999
0.99999999
0.99999999
0.99999999
0.99999999
0.99999999
0.99999999
0.99999999
0.99999999
0.99999999
0.99999999
0.99999999
0.99999999
0.99999999
0.99999999
0.99999999
0.99999999
0.99999999
0.99999999
0.99999999
0.99999999
0.99999999
0.99999999
0.99999999
0.99999999
0.99999999
0.99999999
0.99999999
0.99999999
0.99999999
0.99999999
0.99999999
0.99999999
0.99999999
0.99999999
0.99999999
0.99999999
0.99999999
0.99999999
0.99999999
0.99999999
0.99999999
0.99999999
0.99999999
0.99999999
0.99999999
0.99999999
0.99999999
0.99999999
0.99999999
0.99999999
0.99999999
0.99999999
0.99999999
0.99999999
0.99999999
0.99999999
0.99999999
0.99999999
0.99999999
0.99999999
0.99999999
0.99999999
0.99999999
0.99999999
0.99999999
0.99999999
0.99999999
0.99999999
0.99999999
0.99999999
0.99999999
0.99999999
0.99999999
0.99999999
0.99999999
0.99999999
0.99999999
0.99999999
0.99999999
0.99999999
0.99999999
0.99999999
0.99999999
0.99999999
0.99999999
0.99999999
0.99999999
0.99999999
0.99999999
0.99999999
0.99999999
0.99999999
0.99999999
0.99999999
0.99999999
0.99999999
0.99999999
0.99999999
0.99999999
0.99999999
0.99999999
0.99999999
0.99999999
0.99999999
0.99999999
0.99999999
0.99999999
0.99999999
0.99999999
0.99999999
0.99999999
0.99999999
0.99999999
0.99999999
1
1
1
1
1
1
1
1
1
1
1
1
1
1
1
1
1
1
1
1
1
1
1
1
1
1
0.99999999
0.99999999
0.99999999
0.99999999
0.99999999
0.99999998
0.99999998
0.99999998
0.99999998
0.99999997
0.99999997
0.99999997
0.99999997
0.99999997
0.99999997
0.99999996
0.99999996
0.99999996
0.99999996
0.99999996
0.99999996
0.99999996
0.99999996
0.99999996
0.99999996
0.99999996
0.99999996
0.99999996
0.99999996
0.99999996
0.99999996
0.99999997
0.99999997
0.99999997
0.99999997
0.99999997
0.99999997
0.99999997
0.99999997
0.99999997
0.99999997
0.99999997
0.99999997
0.99999997
0.99999997
0.99999997
0.99999997
0.99999997
0.99999997
0.99999997
0.99999997
0.99999997
0.99999997
0.99999997
0.99999997
0.99999997
0.99999997
0.99999997
0.99999997
0.99999997
0.99999997
0.99999997
0.99999997
0.99999997
0.99999997
0.99999997
0.99999997
0.99999997
0.99999997
0.99999997
0.99999997
0.99999997
0.99999997
0.99999997
0.99999997
0.99999997
0.99999997
0.99999997
0.99999997
0.99999997
0.99999997
0.99999997
0.99999997
0.99999997
0.99999997
0.99999997
0.99999997
0.99999997
0.99999997
0.99999997
0.99999998
0.99999998
0.99999998
0.99999998
0.99999998
0.99999998
0.99999998
0.99999998
0.99999998
0.99999998
0.99999998
0.99999998
0.99999998
0.99999998
0.99999998
0.99999998
0.99999998
0.99999998
0.99999998
0.99999998
0.99999998
0.99999998
0.99999998
0.99999998
0.99999998
0.99999998
0.99999998
0.99999998
0.99999998
0.99999998
0.99999998
0.99999998
0.99999998
0.99999998
0.99999998
0.99999998
0.99999998
0.99999998
0.99999998
0.99999998
0.99999998
0.99999998
0.99999998
0.99999998
0.99999998
0.99999998
0.99999998
0.99999998
0.99999998
0.99999998
0.99999998
0.99999998
0.99999998
0.99999998
0.99999998
0.99999998
0.99999998
0.99999998
0.99999998
0.99999998
0.99999998
0.99999998
0.99999998
0.99999998
0.99999998
0.99999998
0.99999998
0.99999998
0.99999998
0.99999998
0.99999998
0.99999998
0.99999998
0.99999998
0.99999998
0.99999998
0.99999998
0.99999998
0.99999998
0.99999998
0.99999998
0.99999998
0.99999998
0.99999998
1
1
1
1
1
1
1
1
1
1
1
1
1
1
1
1
1
1
1
1
1
1
1
1
0.99999999
0.99999999
0.99999999
0.99999998
0.99999998
0.99999997
0.99999996
0.99999996
0.99999995
0.99999994
0.99999993
0.99999993
0.99999992
0.99999991
0.99999991
0.9999999
0.9999999
0.99999989
0.99999989
0.99999989
0.99999989
0.99999989
0.99999989
0.99999989
0.99999989
0.99999989
0.99999989
0.99999989
0.99999989
0.99999989
0.99999989
0.99999989
0.99999989
0.9999999
0.9999999
0.9999999
0.9999999
0.9999999
0.9999999
0.9999999
0.9999999
0.9999999
0.9999999
0.99999991
0.99999991
0.99999991
0.99999991
0.99999991
0.99999991
0.99999991
0.99999991
0.99999991
0.99999991
0.99999991
0.99999992
0.99999992
0.99999992
0.99999992
0.99999992
0.99999992
0.99999992
0.99999992
0.99999992
0.99999992
0.99999992
0.99999992
0.99999992
0.99999993
0.99999993
0.99999993
0.99999993
0.99999993
0.99999993
0.99999993
0.99999993
0.99999993
0.99999993
0.99999993
0.99999993
0.99999993
0.99999993
0.99999993
0.99999993
0.99999994
0.99999994
0.99999994
0.99999994
0.99999994
0.99999994
0.99999994
0.99999994
0.99999994
0.99999994
0.99999994
0.99999994
0.99999994
0.99999994
0.99999994
0.99999994
0.99999994
0.99999994
0.99999994
0.99999994
0.99999994
0.99999994
0.99999994
0.99999995
0.99999995
0.99999995
0.99999995
0.99999995
0.99999995
0.99999995
0.99999995
0.99999995
0.99999995
0.99999995
0.99999995
0.99999995
0.99999995
0.99999995
0.99999995
0.99999995
0.99999995
0.99999995
0.99999995
0.99999995
0.99999995
0.99999995
0.99999995
0.99999995
0.99999995
0.99999995
0.99999995
0.99999995
0.99999995
0.99999995
0.99999995
0.99999995
0.99999995
0.99999995
0.99999996
0.99999996
0.99999996
0.99999996
0.99999996
0.99999996
0.99999996
0.99999996
0.99999996
0.99999996
0.99999996
0.99999996
0.99999996
0.99999996
0.99999996
0.99999996
0.99999996
0.99999996
0.99999996
0.99999996
0.99999996
0.99999996
0.99999996
0.99999996
0.99999996
0.99999996
0.99999996
0.99999996
0.99999996
0.99999996
0.99999996
0.99999996
0.99999996
0.99999996
0.99999996
1
1
1
1
1
1
1
1
1
1
1
1
1
1
1
1
1
1
1
1
1
1
0.99999999
0.99999999
0.99999999
0.99999998
0.99999997
0.99999996
0.99999994
0.99999992
0.9999999
0.99999988
0.99999986
0.99999983
0.99999981
0.99999978
0.99999976
0.99999974
0.99999972
0.9999997
0.99999969
0.99999968
0.99999967
0.99999966
0.99999966
0.99999966
0.99999966
0.99999966
0.99999966
0.99999966
0.99999966
0.99999967
0.99999967
0.99999967
0.99999968
0.99999968
0.99999968
0.99999969
0.99999969
0.99999969
0.9999997
0.9999997
0.99999971
0.99999971
0.99999971
0.99999972
0.99999972
0.99999972
0.99999973
0.99999973
0.99999974
0.99999974
0.99999974
0.99999975
0.99999975
0.99999975
0.99999976
0.99999976
0.99999976
0.99999977
0.99999977
0.99999977
0.99999978
0.99999978
0.99999978
0.99999978
0.99999979
0.99999979
0.99999979
0.99999979
0.9999998
0.9999998
0.9999998
0.9999998
0.99999981
0.99999981
0.99999981
0.99999981
0.99999982
0.99999982
0.99999982
0.99999982
0.99999982
0.99999983
0.99999983
0.99999983
0.99999983
0.99999983
0.99999984
0.99999984
0.99999984
0.99999984
0.99999984
0.99999984
0.99999985
0.99999985
0.99999985
0.99999985
0.99999985
0.99999985
0.99999986
0.99999986
0.99999986
0.99999986
0.99999986
0.99999986
0.99999986
0.99999987
0.99999987
0.99999987
0.99999987
0.99999987
0.99999987
0.99999987
0.99999987
0.99999988
0.99999988
0.99999988
0.99999988
0.99999988
0.99999988
0.99999988
0.99999988
0.99999988
0.99999988
0.99999989
0.99999989
0.99999989
0.99999989
0.99999989
0.99999989
0.99999989
0.99999989
0.99999989
0.99999989
0.99999989
0.9999999
0.9999999
0.9999999
0.9999999
0.9999999
0.9999999
0.9999999
0.9999999
0.9999999
0.9999999
0.9999999
0.9999999
0.9999999
0.9999999
0.9999999
0.9999999
0.99999991
0.99999991
0.99999991
0.99999991
0.99999991
0.99999991
0.99999991
0.99999991
0.99999991
0.99999991
0.99999991
0.99999991
0.99999991
0.99999991
0.99999991
0.99999991
0.99999991
0.99999991
0.99999991
0.99999991
0.99999991
0.99999991
0.99999992
0.99999992
0.99999992
0.99999992
0.99999992
0.99999992
1
1
1
1
1
1
1
1
1
1
1
1
1
1
1
1
1
1
1
1
1
0.99999999
0.99999999
0.99999997
0.99999996
0.99999994
0.99999991
0.99999987
0.99999983
0.99999978
0.99999971
0.99999965
0.99999958
0.9999995
0.99999943
0.99999935
0.99999928
0.99999921
0.99999915
0.9999991
0.99999905
0.99999902
0.99999899
0.99999897
0.99999896
0.99999896
0.99999896
0.99999896
0.99999897
0.99999898
0.99999898
0.99999899
0.999999
0.99999901
0.99999902
0.99999903
0.99999905
0.99999906
0.99999907
0.99999909
0.9999991
0.99999911
0.99999913
0.99999914
0.99999915
0.99999917
0.99999918
0.99999919
0.99999921
0.99999922
0.99999923
0.99999925
0.99999926
0.99999927
0.99999928
0.9999993
0.99999931
0.99999932
0.99999933
0.99999934
0.99999935
0.99999936
0.99999937
0.99999938
0.99999939
0.9999994
0.99999941
0.99999942
0.99999943
0.99999944
0.99999945
0.99999946
0.99999947
0.99999947
0.99999948
0.99999949
0.9999995
0.99999951
0.99999951
0.99999952
0.99999953
0.99999953
0.99999954
0.99999955
0.99999955
0.99999956
0.99999957
0.99999957
0.99999958
0.99999958
0.99999959
0.9999996
0.9999996
0.99999961
0.99999961
0.99999962
0.99999962
0.99999963
0.99999963
0.99999964
0.99999964
0.99999965
0.99999965
0.99999966
0.99999966
0.99999966
0.99999967
0.99999967
0.99999968
0.99999968
0.99999968
0.99999969
0.99999969
0.9999997
0.9999997
0.9999997
0.99999971
0.99999971
0.99999971
0.99999972
0.99999972
0.99999972
0.99999973
0.99999973
0.99999973
0.99999973
0.99999974
0.99999974
0.99999974
0.99999974
0.99999975
0.99999975
0.99999975
0.99999975
0.99999976
0.99999976
0.99999976
0.99999976
0.99999977
0.99999977
0.99999977
0.99999977
0.99999977
0.99999978
0.99999978
0.99999978
0.99999978
0.99999978
0.99999978
0.99999979
0.99999979
0.99999979
0.99999979
0.99999979
0.99999979
0.9999998
0.9999998
0.9999998
0.9999998
0.9999998
0.9999998
0.9999998
0.99999981
0.99999981
0.99999981
0.99999981
0.99999981
0.99999981
0.99999981
0.99999981
0.99999982
0.99999982
0.99999982
0.99999982
0.99999982
0.99999982
0.99999982
0.99999982
0.99999982
0.99999983
1
1
1
1
1
1
1
1
1
1
1
1
1
1
1
1
1
1
1
0.99999999
0.99999999
0.99999997
0.99999995
0.99999992
0.99999987
0.99999981
0.99999972
0.99999961
0.99999947
0.9999993
0.99999912
0.99999891
0.99999869
0.99999846
0.99999822
0.99999799
0.99999777
0.99999757
0.99999738
0.99999722
0.99999709
0.99999698
0.9999969
0.99999685
0.99999683
0.99999683
0.99999683
0.99999684
0.99999686
0.99999688
0.99999691
0.99999694
0.99999697
0.999997
0.99999704
0.99999708
0.99999713
0.99999717
0.99999721
0.99999726
0.99999731
0.99999735
0.9999974
0.99999745
0.99999749
0.99999754
0.99999759
0.99999763
0.99999768
0.99999772
0.99999777
0.99999781
0.99999785
0.99999789
0.99999794
0.99999798
0.99999802
0.99999805
0.99999809
0.99999813
0.99999817
0.9999982
0.99999824
0.99999827
0.9999983
0.99999834
0.99999837
0.9999984
0.99999843
0.99999846
0.99999849
0.99999852
0.99999854
0.99999857
0.9999986
0.99999862
0.99999865
0.99999867
0.99999869
0.99999872
0.99999874
0.99999876
0.99999878
0.99999881
0.99999883
0.99999885
0.99999887
0.99999889
0.9999989
0.99999892
0.99999894
0.99999896
0.99999898
0.99999899
0.99999901
0.99999902
0.99999904
0.99999906
0.99999907
0.99999909
0.9999991
0.99999911
0.99999913
0.99999914
0.99999915
0.99999917
0.99999918
0.99999919
0.9999992
0.99999922
0.99999923
0.99999924
0.99999925
0.99999926
0.99999927
0.99999928
0.99999929
0.9999993
0.99999931
0.99999932
0.99999933
0.99999934
0.99999935
0.99999936
0.99999936
0.99999937
0.99999938
0.99999939
0.99999939
0.9999994
0.99999941
0.99999942
0.99999942
0.99999943
0.99999944
0.99999944
0.99999945
0.99999946
0.99999946
0.99999947
0.99999947
0.99999948
0.99999948
0.99999949
0.9999995
0.9999995
0.99999951
0.99999951
0.99999952
0.99999952
0.99999952
0.99999953
0.99999953
0.99999954
0.99999954
0.99999955
0.99999955
0.99999955
0.99999956
0.99999956
0.99999957
0.99999957
0.99999957
0.99999958
0.99999958
0.99999958
0.99999959
0.99999959
0.99999959
0.9999996
0.9999996
0.9999996
0.99999961
0.99999961
0.99999961
0.99999961
0.99999962
0.99999962
0.99999962
0.99999963
1
1
1
1
1
1
1
1
1
1
1
1
1
1
1
1
1
1
0.99999999
0.99999998
0.99999995
0.99999991
0.99999984
0.99999973
0.99999957
0.99999935
0.99999906
0.99999869
0.99999825
0.99999772
0.99999712
0.99999647
0.99999577
0.99999505
0.99999433
0.99999362
0.99999295
0.99999233
0.99999177
0.9999913
0.9999909
0.9999906
0.99999039
0.99999026
0.99999022
0.99999022
0.99999024
0.99999028
0.99999034
0.99999042
0.99999051
0.99999061
0.99999072
0.99999084
0.99999097
0.99999111
0.99999126
0.9999914
0.99999156
0.99999171
0.99999187
0.99999202
0.99999218
0.99999234
0.9999925
0.99999266
0.99999281
0.99999297
0.99999312
0.99999327
0.99999342
0.99999356
0.99999371
0.99999385
0.99999398
0.99999412
0.99999425
0.99999438
0.9999945
0.99999463
0.99999475
0.99999486
0.99999498
0.99999509
0.9999952
0.9999953
0.99999541
0.99999551
0.9999956
0.9999957
0.99999579
0.99999588
0.99999597
0.99999606
0.99999614
0.99999622
0.9999963
0.99999638
0.99999645
0.99999653
0.9999966
0.99999667
0.99999673
0.9999968
0.99999687
0.99999693
0.99999699
0.99999705
0.99999711
0.99999716
0.99999722
0.99999727
0.99999733
0.99999738
0.99999743
0.99999748
0.99999752
0.99999757
0.99999761
0.99999766
0.9999977
0.99999774
0.99999778
0.99999782
0.99999786
0.9999979
0.99999794
0.99999797
0.99999801
0.99999804
0.99999808
0.99999811
0.99999814
0.99999817
0.9999982
0.99999823
0.99999826
0.99999829
0.99999832
0.99999835
0.99999837
0.9999984
0.99999842
0.99999845
0.99999847
0.99999849
0.99999852
0.99999854
0.99999856
0.99999858
0.9999986
0.99999862
0.99999864
0.99999866
0.99999868
0.9999987
0.99999871
0.99999873
0.99999875
0.99999876
0.99999878
0.9999988
0.99999881
0.99999883
0.99999884
0.99999885
0.99999887
0.99999888
0.99999889
0.99999891
0.99999892
0.99999893
0.99999894
0.99999896
0.99999897
0.99999898
0.99999899
0.999999
0.99999901
0.99999902
0.99999903
0.99999904
0.99999905
0.99999906
0.99999907
0.99999908
0.99999908
0.99999909
0.9999991
0.99999911
0.99999912
0.99999913
0.99999914
0.99999914
0.99999915
0.99999916
0.99999917
0.99999918
0.99999918
0.99999919
1
1
1
1
1
1
1
1
1
1
1
1
1
1
1
1
0.99999999
0.99999998
0.99999996
0.99999991
0.99999981
0.99999965
0.99999939
0.999999
0.99999844
0.99999768
0.99999668
0.99999545
0.99999396
0.99999224
0.99999031
0.99998822
0.99998601
0.99998375
0.99998151
0.99997934
0.9999773
0.99997544
0.99997381
0.99997244
0.99997133
0.99997051
0.99996998
0.99996971
0.9999697
0.99996973
0.99996983
0.99996998
0.99997018
0.99997044
0.99997074
0.99997107
0.99997144
0.99997184
0.99997227
0.99997271
0.99997318
0.99997365
0.99997414
0.99997464
0.99997515
0.99997565
0.99997616
0.99997667
0.99997718
0.99997769
0.99997819
0.99997868
0.99997917
0.99997966
0.99998013
0.9999806
0.99998106
0.99998151
0.99998195
0.99998238
0.9999828
0.99998322
0.99998362
0.99998401
0.9999844
0.99998477
0.99998514
0.99998549
0.99998584
0.99998618
0.99998651
0.99998683
0.99998714
0.99998744
0.99998774
0.99998803
0.9999883
0.99998858
0.99998884
0.9999891
0.99998935
0.9999896
0.99998983
0.99999006
0.99999029
0.99999051
0.99999072
0.99999093
0.99999113
0.99999133
0.99999152
0.9999917
0.99999189
0.99999206
0.99999223
0.9999924
0.99999256
0.99999272
0.99999288
0.99999303
0.99999317
0.99999332
0.99999346
0.99999359
0.99999372
0.99999385
0.99999398
0.9999941
0.99999422
0.99999433
0.99999445
0.99999456
0.99999466
0.99999477
0.99999487
0.99999497
0.99999506
0.99999516
0.99999525
0.99999534
0.99999542
0.99999551
0.99999559
0.99999567
0.99999575
0.99999582
0.9999959
0.99999597
0.99999604
0.99999611
0.99999617
0.99999624
0.9999963
0.99999636
0.99999642
0.99999648
0.99999654
0.99999659
0.99999665
0.9999967
0.99999675
0.9999968
0.99999685
0.9999969
0.99999694
0.99999699
0.99999703
0.99999707
0.99999711
0.99999716
0.99999719
0.99999723
0.99999727
0.99999731
0.99999734
0.99999738
0.99999741
0.99999744
0.99999748
0.99999751
0.99999754
0.99999757
0.9999976
0.99999763
0.99999765
0.99999768
0.99999771
0.99999773
0.99999776
0.99999778
0.99999781
0.99999783
0.99999786
0.99999788
0.9999979
0.99999793
0.99999795
0.99999797
0.99999799
0.99999802
0.99999804
0.99999806
0.99999808
0.9999981
1
1
1
1
1
1
1
1
1
1
1
1
1
1
1
0.99999999
0.99999996
0.99999991
0.99999979
0.99999957
0.99999916
0.99999849
0.99999745
0.99999593
0.9999938
0.99999098
0.99998739
0.99998299
0.99997782
0.99997193
0.99996543
0.99995849
0.99995128
0.99994401
0.99993688
0.99993008
0.9999238
0.99991818
0.99991334
0.99990936
0.99990628
0.99990413
0.99990288
0.99990249
0.99990248
0.9999027
0.99990314
0.99990377
0.99990457
0.99990554
0.99990665
0.99990788
0.99990923
0.99991066
0.99991218
0.99991377
0.99991541
0.99991709
0.9999188
0.99992054
0.99992229
0.99992405
0.99992582
0.99992757
0.99992932
0.99993105
0.99993276
0.99993445
0.99993611
0.99993774
0.99993935
0.99994093
0.99994247
0.99994398
0.99994545
0.99994689
0.9999483
0.99994967
0.999951
0.9999523
0.99995356
0.9999548
0.99995599
0.99995716
0.99995829
0.99995939
0.99996046
0.9999615
0.9999625
0.99996348
0.99996443
0.99996536
0.99996625
0.99996712
0.99996797
0.99996879
0.99996958
0.99997036
0.99997111
0.99997183
0.99997254
0.99997323
0.99997389
0.99997454
0.99997517
0.99997578
0.99997637
0.99997695
0.99997751
0.99997805
0.99997858
0.99997909
0.99997959
0.99998007
0.99998054
0.999981
0.99998144
0.99998187
0.99998229
0.9999827
0.9999831
0.99998348
0.99998385
0.99998422
0.99998457
0.99998491
0.99998525
0.99998557
0.99998589
0.99998619
0.99998649
0.99998678
0.99998706
0.99998733
0.9999876
0.99998786
0.99998811
0.99998835
0.99998859
0.99998882
0.99998905
0.99998927
0.99998948
0.99998968
0.99998989
0.99999008
0.99999027
0.99999045
0.99999063
0.99999081
0.99999098
0.99999114
0.9999913
0.99999146
0.99999161
0.99999176
0.9999919
0.99999204
0.99999218
0.99999231
0.99999244
0.99999256
0.99999268
0.9999928
0.99999291
0.99999303
0.99999314
0.99999324
0.99999334
0.99999344
0.99999354
0.99999364
0.99999373
0.99999382
0.99999391
0.99999399
0.99999408
0.99999416
0.99999424
0.99999432
0.99999439
0.99999447
0.99999454
0.99999461
0.99999468
0.99999475
0.99999481
0.99999488
0.99999494
0.99999501
0.99999507
0.99999513
0.99999519
0.99999525
0.99999531
0.99999536
0.99999542
0.99999548
0.99999553
0.99999559
1
1
1
1
1
1
1
1
1
1
1
1
1
0.99999999
0.99999997
0.99999992
0.99999979
0.9999995
0.99999893
0.99999787
0.99999607
0.99999322
0.99998895
0.9999829
0.99997474
0.99996421
0.99995117
0.99993562
0.99991771
0.99989774
0.99987615
0.99985349
0.99983037
0.99980743
0.99978531
0.99976458
0.99974577
0.99972929
0.99971544
0.99970443
0.99969634
0.99969118
0.99968883
0.99968883
0.99968924
0.99969039
0.99969222
0.99969468
0.99969771
0.99970125
0.99970523
0.99970961
0.99971433
0.99971934
0.9997246
0.99973005
0.99973567
0.99974141
0.99974724
0.99975312
0.99975904
0.99976497
0.99977088
0.99977676
0.99978259
0.99978836
0.99979405
0.99979965
0.99980516
0.99981057
0.99981586
0.99982105
0.99982611
0.99983106
0.99983589
0.99984059
0.99984517
0.99984962
0.99985396
0.99985817
0.99986226
0.99986624
0.9998701
0.99987384
0.99987747
0.999881
0.99988441
0.99988772
0.99989093
0.99989404
0.99989706
0.99989998
0.99990281
0.99990555
0.99990821
0.99991078
0.99991327
0.99991569
0.99991803
0.99992029
0.99992249
0.99992462
0.99992668
0.99992867
0.99993061
0.99993248
0.9999343
0.99993606
0.99993776
0.99993942
0.99994102
0.99994257
0.99994408
0.99994554
0.99994695
0.99994832
0.99994965
0.99995094
0.99995219
0.9999534
0.99995458
0.99995572
0.99995682
0.99995789
0.99995893
0.99995994
0.99996092
0.99996186
0.99996278
0.99996368
0.99996454
0.99996538
0.9999662
0.99996699
0.99996775
0.9999685
0.99996922
0.99996992
0.9999706
0.99997126
0.9999719
0.99997252
0.99997312
0.9999737
0.99997427
0.99997482
0.99997535
0.99997587
0.99997638
0.99997686
0.99997734
0.9999778
0.99997824
0.99997868
0.9999791
0.99997951
0.9999799
0.99998029
0.99998066
0.99998102
0.99998138
0.99998172
0.99998205
0.99998237
0.99998269
0.99998299
0.99998329
0.99998358
0.99998386
0.99998413
0.99998439
0.99998465
0.9999849
0.99998514
0.99998538
0.99998561
0.99998584
0.99998606
0.99998627
0.99998648
0.99998668
0.99998688
0.99998707
0.99998726
0.99998744
0.99998762
0.9999878
0.99998797
0.99998814
0.9999883
0.99998846
0.99998862
0.99998878
0.99998893
0.99998908
0.99998923
0.99998938
0.99998952
0.99998967
0.99998981
1
1
1
1
1
1
1
1
1
1
1
1
0.99999999
0.99999995
0.99999982
0.99999949
0.99999873
0.99999718
0.99999426
0.99998923
0.99998113
0.99996888
0.99995135
0.9999275
0.99989648
0.99985777
0.99981125
0.99975727
0.99969663
0.99963055
0.99956063
0.99948869
0.99941666
0.99934651
0.99928009
0.99921906
0.99916481
0.99911844
0.99908069
0.99905198
0.99903241
0.99902183
0.9990198
0.99902011
0.99902295
0.99902813
0.99903546
0.99904475
0.99905581
0.99906843
0.99908244
0.99909764
0.99911387
0.99913097
0.99914878
0.99916716
0.99918599
0.99920514
0.99922451
0.99924401
0.99926355
0.99928305
0.99930245
0.99932168
0.9993407
0.99935947
0.99937794
0.99939609
0.99941389
0.99943132
0.99944836
0.999465
0.99948123
0.99949705
0.99951245
0.99952743
0.99954199
0.99955613
0.99956985
0.99958317
0.99959608
0.9996086
0.99962073
0.99963247
0.99964385
0.99965486
0.99966552
0.99967583
0.99968581
0.99969547
0.9997048
0.99971383
0.99972256
0.99973101
0.99973917
0.99974707
0.9997547
0.99976208
0.99976922
0.99977612
0.99978279
0.99978924
0.99979548
0.99980151
0.99980734
0.99981298
0.99981843
0.99982371
0.99982881
0.99983374
0.99983851
0.99984313
0.9998476
0.99985192
0.9998561
0.99986014
0.99986405
0.99986784
0.9998715
0.99987504
0.99987847
0.99988179
0.99988501
0.99988812
0.99989112
0.99989404
0.99989686
0.99989959
0.99990223
0.99990479
0.99990726
0.99990966
0.99991198
0.99991423
0.99991641
0.99991852
0.99992056
0.99992253
0.99992445
0.9999263
0.99992809
0.99992983
0.99993152
0.99993315
0.99993473
0.99993626
0.99993774
0.99993918
0.99994057
0.99994192
0.99994322
0.99994449
0.99994571
0.9999469
0.99994805
0.99994917
0.99995025
0.9999513
0.99995232
0.9999533
0.99995426
0.99995518
0.99995608
0.99995695
0.9999578
0.99995862
0.99995942
0.99996019
0.99996094
0.99996167
0.99996237
0.99996306
0.99996373
0.99996437
0.999965
0.99996561
0.99996621
0.99996679
0.99996735
0.9999679
0.99996843
0.99996895
0.99996946
0.99996995
0.99997043
0.9999709
0.99997136
0.99997181
0.99997224
0.99997267
0.99997309
0.9999735
0.9999739
0.9999743
0.99997468
0.99997506
0.99997544
0.99997581
0.99997617
0.99997653
1
1
1
1
1
1
1
1
1
1
1
0.99999997
0.99999988
0.99999955
0.99999866
0.99999654
0.9999921
0.99998367
0.99996898
0.99994519
0.9999091
0.99985733
0.99978675
0.99969478
0.99957976
0.9994412
0.99927994
0.99909815
0.99889925
0.99868772
0.99846881
0.99824818
0.99803166
0.99782481
0.99763277
0.99745996
0.99730993
0.99718533
0.99708781
0.99701811
0.99697608
0.99696081
0.99696075
0.99696695
0.99698096
0.99700217
0.99702996
0.9970637
0.99710277
0.99714654
0.99719441
0.99724581
0.99730019
0.99735705
0.99741589
0.9974763
0.99753785
0.99760021
0.99766302
0.99772601
0.99778891
0.99785148
0.99791354
0.99797491
0.99803544
0.99809499
0.99815347
0.99821079
0.99826688
0.99832167
0.99837514
0.99842724
0.99847795
0.99852726
0.99857518
0.99862169
0.99866681
0.99871056
0.99875294
0.99879398
0.99883371
0.99887215
0.99890932
0.99894526
0.99898001
0.99901358
0.99904601
0.99907734
0.9991076
0.99913682
0.99916503
0.99919226
0.99921856
0.99924393
0.99926843
0.99929207
0.99931489
0.99933691
0.99935817
0.99937868
0.99939848
0.99941759
0.99943604
0.99945384
0.99947102
0.99948761
0.99950362
0.99951907
0.99953399
0.9995484
0.9995623
0.99957573
0.9995887
0.99960121
0.9996133
0.99962498
0.99963625
0.99964714
0.99965765
0.99966781
0.99967762
0.9996871
0.99969625
0.9997051
0.99971364
0.99972189
0.99972987
0.99973758
0.99974502
0.99975222
0.99975917
0.99976589
0.99977239
0.99977867
0.99978473
0.9997906
0.99979626
0.99980174
0.99980704
0.99981216
0.99981711
0.9998219
0.99982652
0.999831
0.99983532
0.99983951
0.99984355
0.99984747
0.99985125
0.99985491
0.99985845
0.99986188
0.99986519
0.9998684
0.9998715
0.9998745
0.99987741
0.99988022
0.99988294
0.99988558
0.99988813
0.9998906
0.99989299
0.9998953
0.99989755
0.99989972
0.99990183
0.99990387
0.99990584
0.99990776
0.99990962
0.99991142
0.99991317
0.99991487
0.99991651
0.99991811
0.99991966
0.99992117
0.99992263
0.99992406
0.99992544
0.99992678
0.99992809
0.99992937
0.99993061
0.99993182
0.99993299
0.99993414
0.99993526
0.99993636
0.99993743
0.99993847
0.99993949
0.99994049
0.99994147
0.99994244
0.99994338
0.9999443
0.99994521
0.99994611
1
1
1
1
1
1
1
1
1
1
0.99999995
0.99999971
0.99999882
0.99999621
0.99998983
0.99997623
0.99995029
0.9999051
0.99983223
0.99972218
0.99956526
0.9993525
0.9990767
0.99873327
0.99832097
0.99784222
0.99730317
0.99671341
0.9960854
0.99543378
0.99477448
0.99412388
0.99349796
0.99291157
0.99237785
0.99190775
0.9915098
0.9911899
0.99095139
0.99079512
0.99071969
0.9907195
0.99073003
0.99076584
0.99082514
0.99090602
0.99100652
0.99112464
0.99125839
0.99140585
0.99156514
0.99173448
0.99191218
0.99209668
0.99228653
0.99248038
0.99267703
0.99287537
0.99307443
0.99327333
0.99347129
0.99366765
0.99386181
0.99405328
0.99424163
0.9944265
0.9946076
0.99478469
0.99495757
0.99512611
0.99529019
0.99544976
0.99560476
0.99575519
0.99590105
0.99604238
0.99617922
0.99631163
0.99643968
0.99656346
0.99668305
0.99679854
0.99691004
0.99701766
0.99712149
0.99722166
0.99731825
0.9974114
0.9975012
0.99758776
0.99767119
0.99775159
0.99782908
0.99790374
0.99797568
0.998045
0.99811179
0.99817613
0.99823813
0.99829785
0.9983554
0.99841084
0.99846426
0.99851573
0.99856533
0.99861311
0.99865916
0.99870353
0.99874629
0.9987875
0.99882722
0.99886549
0.99890239
0.99893795
0.99897223
0.99900527
0.99903713
0.99906784
0.99909745
0.99912599
0.99915352
0.99918006
0.99920566
0.99923034
0.99925414
0.9992771
0.99929924
0.9993206
0.9993412
0.99936107
0.99938024
0.99939873
0.99941657
0.99943379
0.9994504
0.99946642
0.99948189
0.99949681
0.99951121
0.99952511
0.99953853
0.99955148
0.99956397
0.99957604
0.99958769
0.99959893
0.99960979
0.99962027
0.99963039
0.99964017
0.99964961
0.99965873
0.99966754
0.99967605
0.99968427
0.99969221
0.99969988
0.9997073
0.99971447
0.9997214
0.99972809
0.99973457
0.99974083
0.99974689
0.99975274
0.99975841
0.99976389
0.9997692
0.99977433
0.9997793
0.99978411
0.99978877
0.99979329
0.99979766
0.9998019
0.99980601
0.99981
0.99981386
0.99981761
0.99982125
0.99982478
0.99982821
0.99983155
0.99983479
0.99983794
0.999841
0.99984398
0.99984689
0.99984972
0.99985248
0.99985516
0.99985779
0.99986035
0.99986286
0.99986531
0.9998677
0.99987005
0.99987234
0.9998746
0.9998768
1
1
1
1
1
1
1
1
1
0.99999993
0.99999935
0.9999967
0.99998826
0.99996694
0.99992114
0.99983425
0.99968477
0.99944736
0.99909476
0.9986002
0.99794008
0.99709661
0.99605983
0.99482906
0.99341346
0.99183178
0.99011139
0.98828666
0.98639709
0.98448518
0.98259431
0.98076683
0.97904232
0.97745629
0.9760391
0.97481531
0.9738033
0.97301521
0.97245709
0.97212921
0.97202661
0.97202843
0.97211043
0.97226745
0.97249387
0.97278373
0.97313093
0.97352932
0.97397282
0.9744555
0.97497168
0.97551593
0.97608319
0.97666872
0.97726814
0.97787749
0.97849313
0.97911181
0.97973065
0.98034705
0.98095879
0.9815639
0.98216069
0.98274775
0.98332386
0.98388804
0.98443947
0.98497753
0.98550171
0.98601167
0.98650716
0.98698805
0.98745429
0.98790591
0.98834299
0.9887657
0.98917422
0.9895688
0.9899497
0.99031721
0.99067166
0.99101337
0.99134268
0.99165996
0.99196555
0.99225981
0.99254312
0.99281581
0.99307826
0.99333081
0.99357381
0.99380759
0.99403248
0.99424882
0.99445691
0.99465706
0.99484957
0.99503473
0.99521281
0.99538409
0.99554882