/*--------------------------------*- C++ -*----------------------------------*\
| =========                 |                                                 |
| \\      /  F ield         | OpenFOAM: The Open Source CFD Toolbox           |
|  \\    /   O peration     | Version:  2406                                  |
|   \\  /    A nd           | Website:  www.openfoam.com                      |
|    \\/     M anipulation  |                                                 |
\*---------------------------------------------------------------------------*/
FoamFile
{
    version     2.0;
    format      ascii;
    arch        "LSB;label=32;scalar=64";
    class       volScalarField;
    location    "619";
    object      p;
}
// * * * * * * * * * * * * * * * * * * * * * * * * * * * * * * * * * * * * * //

dimensions      [0 2 -2 0 0 0 0];

internalField   nonuniform List<scalar> 
7200
(
-7.407861e-05
-7.4436932e-05
-5.2920255e-05
-8.9802791e-06
4.9244305e-05
0.00011511032
0.000183358
0.0002499524
0.00031209042
0.00036806732
0.00041704992
0.00045884327
0.00049368122
0.00052205624
0.00054459747
0.00056199356
0.0005749316
0.00058406366
0.00058998915
0.00059324682
0.00059431299
0.00059360354
0.00059147789
0.000588244
0.00058416362
0.00057945756
0.00057431062
0.00056887617
0.00056328033
0.00055762569
0.00055199462
0.00054645214
0.00054104853
0.00053582163
0.0005307988
0.00052599872
0.0005214329
0.00051710693
0.00051302163
0.00050917399
0.00050555796
0.00050216515
0.00049898538
0.00049600717
0.00049321815
0.00049060536
0.00048815554
0.00048585533
0.00048369147
0.00048165094
0.00047972101
0.00047788942
0.00047614435
0.00047447452
0.00047286919
0.00047131821
0.000469812
0.00046834152
0.00046689836
0.00046547462
0.00046406297
0.0004626566
0.00046124921
0.00045983497
0.00045840855
0.00045696502
0.00045549992
0.00045400915
0.000452489
0.00045093614
0.00044934754
0.00044772051
0.00044605265
0.00044434186
0.00044258629
0.00044078432
0.00043893459
0.00043703593
0.00043508741
0.00043308825
0.00043103786
0.00042893583
0.00042678187
0.00042457585
0.00042231778
0.00042000778
0.00041764607
0.00041523299
0.00041276897
0.00041025452
0.00040769024
0.00040507678
0.00040241488
0.00039970532
0.00039694894
0.00039414662
0.00039129929
0.00038840789
0.00038547343
0.0003824969
0.00037947935
0.00037642182
0.00037332538
0.0003701911
0.00036702006
0.00036381334
0.00036057202
0.00035729718
0.00035398989
0.00035065121
0.00034728222
0.00034388393
0.0003404574
0.00033700362
0.00033352361
0.00033001835
0.00032648878
0.00032293587
0.00031936053
0.00031576365
0.00031214613
0.00030850882
0.00030485254
0.00030117812
0.00029748633
0.00029377795
0.0002900537
0.00028631432
0.00028256048
0.00027879286
0.00027501211
0.00027121885
0.00026741367
0.00026359717
0.00025976989
0.00025593237
0.00025208512
0.00024822864
0.0002443634
0.00024048986
0.00023660844
0.00023271956
0.00022882362
0.000224921
0.00022101207
0.00021709716
0.00021317661
0.00020925073
0.00020531982
0.00020138417
0.00019744405
0.00019349971
0.0001895514
0.00018559935
0.00018164378
0.00017768491
0.00017372293
0.00016975802
0.00016579036
0.00016182013
0.00015784748
0.00015387256
0.00014989552
0.00014591648
0.00014193557
0.00013795291
0.00013396862
0.00012998279
0.00012599553
0.00012200693
0.00011801708
0.00011402606
0.00011003394
0.0001060408
0.00010204671
9.805173e-05
9.4055917e-05
9.0059327e-05
8.6062012e-05
8.206402e-05
7.8065396e-05
7.4066182e-05
7.0066416e-05
6.6066133e-05
6.2065367e-05
5.8064149e-05
5.4062506e-05
5.0060464e-05
4.6058047e-05
4.2055276e-05
3.805217e-05
3.4048746e-05
3.0045018e-05
2.6040997e-05
2.2036688e-05
1.803208e-05
1.4027124e-05
1.0021779e-05
6.0161753e-06
2.0084292e-06
-7.0351097e-05
-7.0206413e-05
-4.9897861e-05
-8.5103556e-06
4.6552139e-05
0.00010954666
0.00017559644
0.00024070454
0.00030197913
0.00035758739
0.00040657108
0.00044863533
0.00048392642
0.00051287776
0.0005360804
0.00055418681
0.0005678557
0.00057771813
0.0005843582
0.00058830385
0.00059002411
0.0005899302
0.00058837892
0.00058567703
0.00058208619
0.00057782787
0.00057308807
0.00056802176
0.00056275689
0.00055739806
0.00055202974
0.00054671915
0.00054151872
0.00053646843
0.00053159775
0.0005269274
0.0005224708
0.00051823542
0.00051422383
0.00051043466
0.00050686341
0.00050350313
0.00050034496
0.00049737867
0.00049459301
0.00049197607
0.00048951554
0.00048719894
0.00048501378
0.00048294776
0.00048098881
0.00047912524
0.00047734576
0.00047563956
0.00047399632
0.00047240626
0.00047086013
0.00046934921
0.00046786532
0.0004664008
0.00046494853
0.00046350185
0.00046205463
0.00046060118
0.00045913626
0.00045765506
0.00045615317
0.00045462658
0.00045307163
0.00045148501
0.00044986375
0.00044820517
0.0004465069
0.00044476684
0.00044298314
0.00044115419
0.00043927861
0.00043735524
0.00043538312
0.00043336145
0.00043128964
0.00042916723
0.00042699392
0.00042476957
0.00042249414
0.00042016773
0.00041779053
0.00041536286
0.0004128851
0.00041035775
0.00040778137
0.00040515658
0.00040248408
0.00039976464
0.00039699905
0.00039418817
0.00039133289
0.00038843415
0.00038549289
0.00038251011
0.0003794868
0.00037642401
0.00037332275
0.00037018409
0.00036700907
0.00036379875
0.00036055419
0.00035727645
0.00035396658
0.00035062562
0.00034725462
0.00034385459
0.00034042655
0.00033697149
0.00033349041
0.00032998426
0.000326454
0.00032290055
0.00031932482
0.00031572771
0.00031211007
0.00030847275
0.00030481658
0.00030114236
0.00029745086
0.00029374284
0.00029001903
0.00028628014
0.00028252686
0.00027875984
0.00027497973
0.00027118714
0.00026738268
0.00026356691
0.00025974038
0.00025590364
0.00025205717
0.00024820149
0.00024433705
0.0002404643
0.00023658369
0.00023269561
0.00022880047
0.00022489864
0.00022099049
0.00021707635
0.00021315656
0.00020923143
0.00020530125
0.00020136632
0.0001974269
0.00019348325
0.00018953561
0.00018558422
0.00018162929
0.00017767103
0.00017370965
0.00016974532
0.00016577823
0.00016180855
0.00015783642
0.00015386201
0.00014988546
0.00014590689
0.00014192644
0.00013794422
0.00013396035
0.00012997493
0.00012598806
0.00012199983
0.00011801034
0.00011401966
0.00011002787
0.00010603505
0.00010204125
9.8046559e-05
9.4051017e-05
9.0054687e-05
8.6057619e-05
8.2059863e-05
7.8061462e-05
7.4062459e-05
7.0062894e-05
6.6062801e-05
6.2062215e-05
5.8061166e-05
5.4059683e-05
5.005779e-05
4.6055513e-05
4.2052871e-05
3.8049884e-05
3.4046569e-05
3.0042937e-05
2.6038999e-05
2.2034758e-05
1.8030207e-05
1.4025313e-05
1.002009e-05
6.0148358e-06
2.0080583e-06
-0.00010019341
-9.2412822e-05
-6.6429551e-05
-2.1435143e-05
3.5753831e-05
0.0001000629
0.0001669239
0.00023251965
0.0002940854
0.0003498844
0.00039902574
0.00044126814
0.0004767929
0.00050604244
0.00052960127
0.00054811135
0.0005622191
0.00057254323
0.00057965654
0.00058407733
0.00058626678
0.00058662997
0.00058551901
0.00058323726
0.00058004397
0.00057615905
0.00057176755
0.00056702403
0.00056205642
0.00055696967
0.00055184888
0.00054676212
0.00054176274
0.00053689174
0.00053217971
0.00052764858
0.00052331299
0.00051918166
0.00051525838
0.00051154301
0.00050803224
0.00050472024
0.00050159927
0.00049866014
0.00049589259
0.00049328562
0.00049082781
0.00048850748
0.00048631291
0.00048423248
0.00048225477
0.00048036868
0.00047856346
0.00047682879
0.00047515481
0.00047353213
0.00047195188
0.00047040566
0.0004688856
0.0004673843
0.00046589486
0.00046441087
0.00046292636
0.00046143581
0.00045993412
0.00045841661
0.00045687898
0.00045531731
0.00045372802
0.00045210787
0.00045045395
0.00044876362
0.00044703456
0.00044526467
0.00044345214
0.00044159537
0.000439693
0.00043774386
0.00043574698
0.00043370158
0.00043160704
0.00042946289
0.00042726884
0.0004250247
0.00042273043
0.00042038609
0.00041799187
0.00041554805
0.000413055
0.00041051318
0.00040792313
0.00040528544
0.0004026008
0.00039986992
0.00039709359
0.00039427263
0.00039140792
0.00038850034
0.00038555084
0.00038256037
0.00037952992
0.00037646048
0.00037335307
0.0003702087
0.00036702842
0.00036381325
0.00036056424
0.00035728241
0.00035396881
0.00035062444
0.00034725035
0.00034384752
0.00034041695
0.00033695963
0.00033347652
0.00032996858
0.00032643673
0.00032288189
0.00031930495
0.0003157068
0.00031208828
0.00030845024
0.00030479347
0.00030111878
0.00029742692
0.00029371865
0.00028999468
0.00028625572
0.00028250245
0.00027873551
0.00027495555
0.00027116318
0.00026735897
0.00026354351
0.00025971733
0.00025588097
0.00025203493
0.00024817969
0.00024431572
0.00024044347
0.00023656336
0.0002326758
0.00022878119
0.0002248799
0.00022097229
0.00021705871
0.00021313946
0.00020921488
0.00020528526
0.00020135087
0.00019741199
0.00019346887
0.00018952175
0.00018557087
0.00018161645
0.00017765869
0.0001736978
0.00016973395
0.00016576732
0.00016179809
0.00015782641
0.00015385243
0.00014987629
0.00014589813
0.00014191806
0.00013793623
0.00013395272
0.00012996765
0.00012598112
0.00012199323
0.00011800405
0.00011401367
0.00011002218
0.00010602963
0.00010203611
9.8041675e-05
9.4046381e-05
9.0050288e-05
8.6053447e-05
8.2055906e-05
7.8057712e-05
7.4058906e-05
7.0059528e-05
6.6059613e-05
6.2059196e-05
5.8058307e-05
5.4056975e-05
5.0055226e-05
4.6053083e-05
4.2050568e-05
3.8047699e-05
3.4044493e-05
3.0040963e-05
2.6037119e-05
2.2032968e-05
1.8028511e-05
1.4023731e-05
1.0018674e-05
6.0137918e-06
2.0081707e-06
-0.00017785024
-0.00014796662
-0.00010385851
-4.6263411e-05
1.9621335e-05
8.9645473e-05
0.00016000973
0.00022755169
0.00029005137
0.00034617131
0.00039531045
0.00043741297
0.00047277458
0.00050189935
0.00052539849
0.00054392095
0.00055810912
0.00056857237
0.00057587235
0.00058051635
0.00058295555
0.00058358642
0.00058275385
0.00058075525
0.00057784508
0.00057423932
0.00057011996
0.0005656391
0.0005609228
0.00055607457
0.00055117864
0.00054630244
0.00054149877
0.0005368084
0.00053226196
0.00052788154
0.00052368217
0.000519673
0.00051585841
0.00051223887
0.00050881175
0.00050557193
0.00050251241
0.00049962471
0.00049689932
0.00049432597
0.00049189393
0.00048959219
0.00048740971
0.00048533547
0.00048335865
0.0004814687
0.0004796554
0.00047790892
0.00047621984
0.0004745792
0.00047297852
0.00047140976
0.00046986536
0.00046833825
0.0004668218
0.00046530983
0.0004637966
0.0004622768
0.00046074551
0.00045919821
0.00045763075
0.00045603934
0.00045442052
0.00045277114
0.00045108839
0.0004493697
0.0004476128
0.00044581567
0.00044397654
0.00044209385
0.00044016627
0.00043819266
0.00043617206
0.00043410372
0.00043198701
0.00042982149
0.00042760685
0.00042534291
0.00042302961
0.00042066703
0.00041825534
0.00041579479
0.00041328576
0.00041072868
0.00040812407
0.00040547254
0.00040277471
0.00040003132
0.0003972431
0.00039441088
0.0003915355
0.00038861784
0.00038565881
0.00038265934
0.00037962041
0.000376543
0.00037342808
0.00037027667
0.00036708978
0.00036386842
0.00036061362
0.00035732639
0.00035400774
0.00035065868
0.00034728022
0.00034387334
0.00034043901
0.00033697822
0.0003334919
0.000329981
0.00032644643
0.00032288909
0.00031930988
0.00031570964
0.00031208923
0.00030844946
0.00030479113
0.00030111504
0.00029742192
0.00029371253
0.00028998756
0.00028624772
0.00028249368
0.00027872607
0.00027494553
0.00027115266
0.00026734805
0.00026353225
0.0002597058
0.00025586923
0.00025202304
0.0002481677
0.00024430368
0.00024043142
0.00023655134
0.00023266385
0.00022876934
0.00022486818
0.00022096072
0.0002170473
0.00021312826
0.00020920388
0.00020527448
0.00020134033
0.00019740169
0.00019345883
0.00018951198
0.00018556137
0.00018160722
0.00017764974
0.00017368912
0.00016972555
0.0001657592
0.00016179024
0.00015781884
0.00015384513
0.00014986926
0.00014589136
0.00014191156
0.00013792998
0.00013394672
0.0001299619
0.00012597561
0.00012198794
0.00011799899
0.00011400884
0.00011001756
0.00010602522
0.0001020319
9.8037662e-05
9.4042557e-05
9.0046646e-05
8.604998e-05
8.2052609e-05
7.8054578e-05
7.4055929e-05
7.0056701e-05
6.605693e-05
6.2056651e-05
5.8055895e-05
5.4054689e-05
5.0053061e-05
4.6051034e-05
4.204863e-05
3.8045868e-05
3.4042765e-05
3.0039337e-05
2.6035596e-05
2.2031556e-05
1.8027229e-05
1.4022617e-05
1.0017788e-05
6.0132405e-06
2.0084711e-06
-0.00032283444
-0.00023418572
-0.00014879967
-7.021321e-05
7.7437727e-06
8.4767477e-05
0.00015847156
0.00022716667
0.00028964602
0.00034516287
0.00039348733
0.00043478002
0.00046944454
0.000498027
0.00052114448
0.00053943337
0.00055351548
0.00056397766
0.00057136023
0.00057615171
0.00057878742
0.00057965076
0.00057907602
0.00057735206
0.00057472644
0.0005714096
0.00056757905
0.00056338331
0.00055894548
0.00055436697
0.00054973046
0.00054510173
0.00054053241
0.00053606251
0.00053172217
0.00052753328
0.00052351083
0.00051966413
0.0005159978
0.00051251272
0.00050920672
0.00050607525
0.0005031119
0.00050030883
0.00049765719
0.00049514739
0.00049276936
0.0004905128
0.00048836729
0.00048632249
0.00048436818
0.00048249443
0.00048069158
0.00047895034
0.00047726182
0.00047561755
0.00047400947
0.00047243
0.00047087197
0.00046932866
0.00046779379
0.0004662615
0.00046472633
0.00046318323
0.00046162753
0.00046005492
0.00045846146
0.00045684353
0.00045519784
0.00045352139
0.00045181147
0.00045006566
0.00044828179
0.00044645792
0.00044459237
0.00044268364
0.00044073046
0.00043873176
0.00043668661
0.00043459429
0.00043245423
0.00043026599
0.00042802928
0.00042574395
0.00042340995
0.00042102735
0.00041859634
0.00041611717
0.0004135902
0.00041101588
0.00040839472
0.0004057273
0.00040301426
0.00040025629
0.00039745416
0.00039460864
0.00039172057
0.00038879081
0.00038582027
0.00038280986
0.00037976053
0.00037667324
0.00037354896
0.00037038869
0.00036719341
0.00036396413
0.00036070184
0.00035740755
0.00035408225
0.00035072693
0.00034734258
0.00034393017
0.00034049067
0.00033702502
0.00033353416
0.00033001901
0.00032648048
0.00032291945
0.0003193368
0.00031573336
0.00031210999
0.00030846747
0.00030480661
0.00030112816
0.00029743289
0.0002937215
0.00028999471
0.0002862532
0.00028249763
0.00027872863
0.00027494683
0.00027115281
0.00026734716
0.00026353043
0.00025970315
0.00025586584
0.00025201899
0.00024816307
0.00024429854
0.00024042583
0.00023654538
0.00023265756
0.00022876278
0.0002248614
0.00022095376
0.00021704021
0.00021312106
0.00020919662
0.00020526719
0.00020133303
0.00019739441
0.00019345159
0.0001895048
0.00018555427
0.00018160022
0.00017764285
0.00017368235
0.00016971891
0.0001657527
0.0001617839
0.00015781265
0.0001538391
0.0001498634
0.00014588567
0.00014190604
0.00013792463
0.00013394155
0.0001299569
0.00012597079
0.0001219833
0.00011799452
0.00011400453
0.00011001342
0.00010602125
0.00010202809
9.8034011e-05
9.4039062e-05
9.0043303e-05
8.6046787e-05
8.2049561e-05
7.8051671e-05
7.4053159e-05
7.0054065e-05
6.6054424e-05
6.2054271e-05
5.8053636e-05
5.4052549e-05
5.0051036e-05
4.6049121e-05
4.2046827e-05
3.8044173e-05
3.4041178e-05
3.0037861e-05
2.6034237e-05
2.2030326e-05
1.8026149e-05
1.4021722e-05
1.0017121e-05
6.012828e-06
2.0087073e-06
-0.00067938275
-0.00037392611
-0.00018990515
-8.4156631e-05
6.9811273e-06
9.0411823e-05
0.00016516605
0.00023252725
0.00029293096
0.00034625661
0.00039257839
0.00043219939
0.00046555541
0.00049316963
0.00051561514
0.00053347882
0.00054733497
0.00055772841
0.0005651641
0.00057010161
0.00057295302
0.00057408325
0.00057381197
0.00057241647
0.00057013512
0.00056717106
0.00056369597
0.00055985363
0.00055576348
0.00055152465
0.00054721721
0.00054290441
0.00053863656
0.00053445271
0.00053038233
0.00052644688
0.00052266115
0.00051903444
0.00051557159
0.00051227375
0.0005091392
0.00050616389
0.00050334199
0.00050066632
0.0004981287
0.00049572024
0.00049343162
0.00049125324
0.00048917543
0.00048718854
0.00048528309
0.0004834498
0.00048167967
0.00047996407
0.0004782947
0.00047666367
0.00047506347
0.00047348703
0.00047192768
0.00047037914
0.00046883557
0.0004672915
0.00046574183
0.00046418187
0.00046260726
0.00046101399
0.00045939836
0.00045775702
0.00045608689
0.00045438517
0.00045264936
0.00045087719
0.00044906664
0.00044721591
0.00044532344
0.00044338785
0.00044140795
0.00043938276
0.00043731144
0.00043519333
0.0004330279
0.00043081479
0.00042855373
0.00042624461
0.00042388742
0.00042148225
0.00041902929
0.00041652884
0.00041398125
0.00041138698
0.00040874655
0.00040606053
0.00040332957
0.00040055435
0.00039773563
0.00039487418
0.00039197084
0.00038902644
0.00038604189
0.00038301808
0.00037995596
0.00037685645
0.00037372054
0.00037054918
0.00036734335
0.00036410404
0.00036083223
0.00035752891
0.00035419505
0.00035083162
0.00034743961
0.00034401995
0.00034057361
0.00033710151
0.00033360457
0.0003300837
0.00032653979
0.00032297372
0.00031938632
0.00031577845
0.00031215092
0.00030850452
0.00030484003
0.0003011582
0.00029745977
0.00029374546
0.00029001594
0.00028627191
0.00028251399
0.00027874283
0.00027495903
0.00027116318
0.00026735584
0.00026353755
0.00025970885
0.00025587024
0.0002520222
0.0002481652
0.00024429969
0.00024042611
0.00023654485
0.00023265633
0.00022876091
0.00022485895
0.00022095082
0.00021703682
0.00021311729
0.00020919252
0.0002052628
0.0002013284
0.00019738959
0.0001934466
0.00018949968
0.00018554906
0.00018159494
0.00017763752
0.000173677
0.00016971356
0.00016574738
0.00016177861
0.00015780741
0.00015383393
0.00014985831
0.00014588067
0.00014190113
0.00013791983
0.00013393686
0.00012995233
0.00012596634
0.00012197897
0.00011799032
0.00011400047
0.00011000949
0.00010601746
0.00010202443
9.8030485e-05
9.4035671e-05
9.0040046e-05
8.6043662e-05
8.2046567e-05
7.8048806e-05
7.4050422e-05
7.0051453e-05
6.6051936e-05
6.2051905e-05
5.805139e-05
5.4050421e-05
5.0049024e-05
4.6047224e-05
4.2045045e-05
3.8042506e-05
3.4039629e-05
3.0036434e-05
2.603294e-05
2.2029171e-05
1.8025153e-05
1.402091e-05
1.0016518e-05
6.0123992e-06
2.0087772e-06
-0.0013042916
-0.00053579537
-0.00020729699
-7.5903925e-05
2.4172783e-05
0.00010905246
0.00018039543
0.00024306617
0.00029902161
0.00034850944
0.00039168989
0.000428851
0.00046035366
0.00048662622
0.00050814921
0.00052542679
0.00053896264
0.00054924313
0.00055672579
0.00056183225
0.00056494437
0.00056640317
0.00056650936
0.00056552519
0.0005636771
0.00056115869
0.00055813398
0.00055474069
0.00055109461
0.00054729084
0.00054340497
0.00053949802
0.00053561881
0.0005318052
0.00052808579
0.00052448151
0.00052100689
0.00051767121
0.00051447944
0.00051143307
0.00050853083
0.00050576922
0.00050314306
0.00050064585
0.00049827019
0.00049600796
0.00049385066
0.0004917895
0.00048981564
0.00048792025
0.00048609464
0.00048433034
0.00048261912
0.00048095308
0.00047932464
0.00047772659
0.00047615211
0.00047459473
0.00047304837
0.00047150733
0.00046996628
0.00046842025
0.00046686463
0.00046529513
0.00046370782
0.00046209904
0.00046046548
0.00045880407
0.00045711205
0.0004553869
0.00045362635
0.00045182837
0.00044999115
0.00044811309
0.00044619278
0.00044422901
0.00044222074
0.00044016711
0.00043806739
0.00043592102
0.00043372757
0.00043148675
0.00042919837
0.00042686237
0.0004244788
0.00042204779
0.00041956959
0.0004170445
0.00041447292
0.00041185532
0.00040919223
0.00040648426
0.00040373204
0.00040093628
0.00039809772
0.00039521715
0.00039229538
0.00038933327
0.00038633168
0.00038329153
0.00038021373
0.00037709922
0.00037394894
0.00037076385
0.00036754491
0.0003642931
0.00036100937
0.0003576947
0.00035435005
0.00035097637
0.00034757461
0.00034414572
0.00034069062
0.00033721023
0.00033370545
0.00033017718
0.00032662628
0.0003230536
0.00031946
0.00031584628
0.00031221324
0.00030856168
0.00030489234
0.00030120597
0.00029750329
0.00029378499
0.00029005176
0.00028630426
0.00028254311
0.00027876894
0.00027498234
0.00027118389
0.00026737414
0.00026355363
0.00025972287
0.00025588236
0.00025203257
0.00024817396
0.00024430698
0.00024043204
0.00023654955
0.0002326599
0.00022876345
0.00022486058
0.0002209516
0.00021703685
0.00021311664
0.00020919126
0.000205261
0.00020132613
0.00019738689
0.00019344354
0.0001894963
0.00018554541
0.00018159105
0.00017763344
0.00017367277
0.00016970921
0.00016574292
0.00016177409
0.00015780284
0.00015382934
0.00014985371
0.00014587608
0.00014189658
0.00013791532
0.00013393241
0.00012994794
0.00012596203
0.00012197475
0.0001179862
0.00011399644
0.00011000557
0.00010601364
0.00010202074
9.8026904e-05
9.4032209e-05
9.0036706e-05
8.6040444e-05
8.2043473e-05
7.8045837e-05
7.4047577e-05
7.0048733e-05
6.604934e-05
6.2049432e-05
5.8049041e-05
5.4048195e-05
5.0046921e-05
4.6045245e-05
4.2043189e-05
3.8040777e-05
3.403803e-05
3.0034969e-05
2.6031617e-05
2.2027999e-05
1.8024144e-05
1.4020077e-05
1.001587e-05
6.011866e-06
2.0086129e-06
0.00012115259
4.1101847e-05
2.4588973e-05
4.832834e-05
9.6151023e-05
0.00015125899
0.00020600229
0.00025831789
0.00030697546
0.00035106745
0.00039019896
0.00042431808
0.00045356417
0.00047820598
0.00049859872
0.00051514525
0.00052826691
0.00053838312
0.00054589713
0.00055118658
0.00055459783
0.00055644315
0.00055700006
0.00055651204
0.00055519033
0.00055321619
0.00055074379
0.00054790439
0.00054480767
0.00054154156
0.00053817752
0.00053477439
0.00053137891
0.00052802733
0.00052474718
0.00052155869
0.00051847607
0.00051550853
0.00051266122
0.00050993599
0.00050733205
0.00050484654
0.00050247499
0.00050021169
0.00049805007
0.00049598291
0.00049400259
0.00049210127
0.000490271
0.0004885039
0.00048679219
0.00048512828
0.00048350483
0.00048191479
0.00048035142
0.00047880831
0.0004772794
0.00047575895
0.00047424159
0.0004727223
0.00047119638
0.00046965945
0.00046810748
0.00046653671
0.0004649437
0.00046332528
0.00046167855
0.00046000087
0.00045828984
0.00045654331
0.00045475932
0.00045293615
0.00045107225
0.00044916629
0.00044721707
0.00044522362
0.00044318507
0.00044110073
0.00043897004
0.00043679258
0.00043456804
0.00043229626
0.00042997713
0.00042761071
0.0004251971
0.00042273652
0.00042022926
0.0004176757
0.00041507627
0.00041243147
0.00040974188
0.00040700812
0.00040423085
0.00040141079
0.00039854869
0.00039564536
0.00039270159
0.00038971826
0.00038669624
0.00038363641
0.00038053969
0.00037740702
0.00037423931
0.00037103753
0.00036780261
0.00036453551
0.00036123718
0.00035790858
0.00035455064
0.0003511643
0.0003477505
0.00034431016
0.00034084418
0.00033735347
0.00033383891
0.00033030136
0.00032674168
0.00032316072
0.00031955928
0.00031593816
0.00031229816
0.00030864003
0.00030496451
0.00030127233
0.0002975642
0.00029384079
0.00029010276
0.00028635077
0.00028258543
0.00027880734
0.00027501708
0.00027121522
0.0002674023
0.00026357884
0.00025974534
0.00025590229
0.00025205015
0.00024818938
0.00024432039
0.0002404436
0.00023655942
0.00023266821
0.00022877033
0.00022486615
0.00022095598
0.00021704015
0.00021311896
0.00020919269
0.00020526163
0.00020132603
0.00019738615
0.00019344222
0.00018949448
0.00018554313
0.00018158838
0.00017763043
0.00017366946
0.00016970564
0.00016573915
0.00016177014
0.00015779875
0.00015382513
0.00014984942
0.00014587174
0.0001418922
0.00013791093
0.00013392802
0.00012994358
0.0001259577
0.00012197048
0.00011798198
0.00011399231
0.00011000152
0.00010600968
0.00010201687
9.8023143e-05
9.4028558e-05
9.0033169e-05
8.6037025e-05
8.2040175e-05
7.8042662e-05
7.4044528e-05
7.0045811e-05
6.6046547e-05
6.2046769e-05
5.8046508e-05
5.4045794e-05
5.0044653e-05
4.6043111e-05
4.2041192e-05
3.8038918e-05
3.4036313e-05
3.0033399e-05
2.6030199e-05
2.2026738e-05
1.8023047e-05
1.4019149e-05
1.0015107e-05
6.0111761e-06
2.0081724e-06
0.00012569249
2.8877064e-05
3.4280202e-05
8.2541736e-05
0.00013080597
0.0001779537
0.00022517787
0.00027082622
0.00031354356
0.0003526371
0.00038772915
0.00041865592
0.00044543789
0.00046823536
0.00048730336
0.00050295538
0.00051553544
0.00052539702
0.00053288745
0.00053833725
0.00054205324
0.00054431464
0.00054537142
0.00054544424
0.00054472541
0.00054338067
0.00054155382
0.00053936592
0.00053691511
0.00053428249
0.00053153623
0.00052873158
0.00052591233
0.00052311262
0.00052035855
0.00051766947
0.00051505909
0.0005125365
0.00051010697
0.0005077727
0.00050553344
0.00050338699
0.00050132963
0.00049935654
0.00049746203
0.00049563984
0.00049388334
0.00049218569
0.00049053995
0.00048893924
0.00048737679
0.00048584601
0.00048434052
0.00048285424
0.00048138134
0.00047991631
0.00047845396
0.00047698941
0.00047551809
0.00047403574
0.0004725384
0.0004710224
0.00046948437
0.00046792119
0.00046633
0.00046470821
0.00046305344
0.00046136354
0.00045963659
0.00045787085
0.00045606478
0.00045421701
0.00045232636
0.00045039179
0.00044841243
0.00044638754
0.00044431652
0.00044219891
0.00044003435
0.0004378226
0.00043556353
0.00043325712
0.00043090341
0.00042850257
0.00042605482
0.00042356047
0.00042101991
0.00041843357
0.00041580196
0.00041312565
0.00041040525
0.00040764142
0.00040483486
0.00040198632
0.00039909656
0.00039616641
0.00039319669
0.00039018826
0.000387142
0.0003840588
0.00038093957
0.00037778524
0.00037459672
0.00037137496
0.00036812089
0.00036483544
0.00036151956
0.00035817417
0.0003548002
0.00035139858
0.0003479702
0.00034451598
0.0003410368
0.00033753355
0.00033400707
0.00033045822
0.00032688784
0.00032329672
0.00031968568
0.0003160555
0.00031240693
0.00030874071
0.00030505758
0.00030135823
0.00029764335
0.00029391359
0.00029016961
0.00028641204
0.00028264146
0.00027885847
0.00027506364
0.0002712575
0.00026744059
0.00026361342
0.00025977646
0.00025593019
0.00025207507
0.00024821152
0.00024433998
0.00024046082
0.00023657445
0.00023268123
0.0002287815
0.00022487562
0.00022096389
0.00021704664
0.00021312414
0.00020919669
0.00020526456
0.00020132799
0.00019738723
0.00019344251
0.00018949406
0.00018554208
0.00018158677
0.00017762832
0.00017366692
0.00016970272
0.0001657359
0.00016176661
0.00015779498
0.00015382117
0.0001498453
0.00014586749
0.00014188786
0.00013790652
0.00013392357
0.00012993911
0.00012595323
0.00012196602
0.00011797756
0.00011398794
0.00010999721
0.00010600545
0.00010201273
9.8019093e-05
9.4024611e-05
9.0029332e-05
8.6033305e-05
8.2036576e-05
7.803919e-05
7.4041185e-05
7.0042602e-05
6.6043474e-05
6.2043835e-05
5.8043715e-05
5.4043144e-05
5.0042149e-05
4.6040754e-05
4.2038985e-05
3.8036865e-05
3.4034415e-05
3.003166e-05
2.6028622e-05
2.2025326e-05
1.80218e-05
1.4018067e-05
1.0014178e-05
6.0103072e-06
2.0074134e-06
0.0001064828
8.858141e-05
0.00010339996
0.00013587715
0.00017032042
0.00020687152
0.00024542906
0.00028377727
0.00032031949
0.00035425715
0.00038511078
0.00041260686
0.00043666684
0.0004573618
0.00047486331
0.00048940749
0.00050126804
0.00051073523
0.00051810017
0.00052364384
0.00052762982
0.00053030003
0.00053187243
0.00053254063
0.00053247426
0.0005318231
0.00053071383
0.00052925097
0.00052752309
0.00052560541
0.00052355993
0.00052143676
0.00051927592
0.00051710886
0.0005149598
0.00051284683
0.00051078294
0.00050877691
0.00050683404
0.00050495681
0.00050314546
0.00050139842
0.00049971278
0.00049808455
0.00049650899
0.00049498083
0.00049349445
0.00049204405
0.00049062377
0.00048922778
0.00048785037
0.00048648599
0.00048512933
0.00048377531
0.00048241911
0.0004810562
0.00047968235
0.00047829359
0.00047688625
0.00047545692
0.00047400249
0.00047252007
0.00047100704
0.00046946102
0.00046787984
0.00046626154
0.00046460437
0.00046290677
0.00046116734
0.00045938488
0.00045755831
0.00045568672
0.00045376935
0.00045180554
0.00044979478
0.00044773666
0.0004456309
0.0004434773
0.00044127577
0.00043902631
0.00043672899
0.00043438399
0.00043199154
0.00042955196
0.0004270656
0.00042453292
0.0004219544
0.0004193306
0.00041666209
0.00041394953
0.0004111936
0.000408395
0.0004055545
0.00040267287
0.00039975093
0.00039678951
0.00039378946
0.00039075166
0.00038767699
0.00038456635
0.00038142066
0.00037824082
0.00037502776
0.00037178241
0.00036850569
0.00036519852
0.00036186183
0.00035849652
0.00035510351
0.00035168369
0.00034823796
0.00034476719
0.00034127225
0.000337754
0.00033421327
0.00033065088
0.00032706765
0.00032346436
0.00031984179
0.00031620069
0.00031254179
0.00030886583
0.0003051735
0.00030146548
0.00029774242
0.00029400498
0.00029025378
0.00028648941
0.00028271247
0.00027892351
0.00027512309
0.00027131173
0.00026748993
0.00026365819
0.00025981699
0.00025596676
0.00025210796
0.00024824099
0.00024436627
0.00024048418
0.00023659509
0.00023269936
0.00022879732
0.0002248893
0.00022097562
0.00021705656
0.00021313242
0.00020920347
0.00020526996
0.00020133215
0.00019739026
0.00019344452
0.00018949514
0.00018554233
0.00018158628
0.00017762717
0.00017366518
0.00016970047
0.0001657332
0.00016176351
0.00015779155
0.00015381745
0.00014984133
0.00014586332
0.00014188353
0.00013790206
0.00013391901
0.00012993449
0.00012594857
0.00012196135
0.0001179729
0.00011398329
0.00010999261
0.00010600091
0.00010200826
9.8014713e-05
9.4020327e-05
9.0025154e-05
8.6029242e-05
8.2032636e-05
7.8035379e-05
7.403751e-05
7.0039066e-05
6.6040083e-05
6.2040593e-05
5.8040625e-05
5.404021e-05
5.0039373e-05
4.603814e-05
4.2036535e-05
3.8034581e-05
3.4032301e-05
3.0029718e-05
2.6026852e-05
2.2023729e-05
1.8020373e-05
1.4016804e-05
1.0013065e-05
6.0092552e-06
2.0063453e-06
0.00014398868
0.00014303729
0.00015253142
0.00017403287
0.00020143664
0.00023183553
0.00026392564
0.00029612479
0.00032714115
0.00035620271
0.00038284172
0.0004067828
0.00042791876
0.00044627582
0.00046197214
0.00047518579
0.00048613113
0.00049504035
0.00050214957
0.00050768895
0.00051187615
0.00051491234
0.00051697987
0.0005182427
0.00051884615
0.00051891518
0.00051855533
0.00051785853
0.00051690314
0.00051575463
0.000514467
0.00051308431
0.00051164203
0.00051016826
0.00050868474
0.0005072079
0.00050574965
0.00050431819
0.00050291863
0.00050155355
0.00050022356
0.00049892763
0.00049766353
0.00049642807
0.00049521739
0.00049402716
0.00049285276
0.00049168941
0.0004905323
0.00048937666
0.00048821783
0.00048705136
0.00048587297
0.00048467863
0.00048346457
0.00048222728
0.00048096351
0.00047967029
0.00047834488
0.00047698482
0.00047558786
0.00047415199
0.00047267543
0.00047115658
0.00046959404
0.00046798658
0.00046633314
0.00046463281
0.00046288483
0.00046108858
0.00045924353
0.00045734929
0.00045540559
0.00045341223
0.00045136912
0.00044927624
0.00044713368
0.00044494157
0.00044270013
0.00044040966
0.00043807048
0.00043568301
0.0004332477
0.00043076505
0.00042823562
0.00042566001
0.00042303885
0.0004203728
0.00041766259
0.00041490895
0.00041211265
0.00040927448
0.00040639525