/*--------------------------------*- C++ -*----------------------------------*\
| =========                 |                                                 |
| \\      /  F ield         | OpenFOAM: The Open Source CFD Toolbox           |
|  \\    /   O peration     | Version:  2406                                  |
|   \\  /    A nd           | Website:  www.openfoam.com                      |
|    \\/     M anipulation  |                                                 |
\*---------------------------------------------------------------------------*/
FoamFile
{
    version     2.0;
    format      ascii;
    arch        "LSB;label=32;scalar=64";
    class       surfaceScalarField;
    location    "619";
    object      phi;
}
// * * * * * * * * * * * * * * * * * * * * * * * * * * * * * * * * * * * * * //

dimensions      [0 3 -1 0 0 0 0];

oriented        oriented;

internalField   nonuniform List<scalar> 
14164
(
-2.1112358e-13
2.1112358e-13
-5.7705086e-13
3.6592728e-13
-9.1216051e-13
3.3510965e-13
-1.1326456e-12
2.2048505e-13
-1.2241538e-12
9.1508189e-14
-1.2021903e-12
-2.1963439e-14
-1.0926273e-12
-1.0956303e-13
-9.2237776e-13
-1.7024952e-13
-7.1508239e-13
-2.0729537e-13
-4.8960274e-13
-2.2547965e-13
-2.5997648e-13
-2.2962626e-13
-3.598242e-14
-2.2399406e-13
1.7597664e-13
-2.1195906e-13
3.7207084e-13
-1.9609419e-13
5.5034619e-13
-1.7827535e-13
7.101394e-13
-1.5979321e-13
8.5163998e-13
-1.4150058e-13
9.7557524e-13
-1.2393525e-13
1.0829891e-12
-1.074139e-13
1.1750917e-12
-9.2102554e-14
1.2531594e-12
-7.8067686e-14
1.3184713e-12
-6.5311886e-14
1.3722695e-12
-5.3798227e-14
1.415736e-12
-4.3466535e-14
1.44998e-12
-3.4244026e-14
1.4760322e-12
-2.6052155e-14
1.4948431e-12
-1.8810945e-14
1.5072848e-12
-1.2441685e-14
1.5141534e-12
-6.8686086e-15
1.5161734e-12
-2.0199493e-15
1.5140019e-12
2.1715282e-15
1.5082326e-12
5.7692112e-15
1.4994001e-12
8.8325583e-15
1.4879833e-12
1.1416798e-14
1.4744105e-12
1.3572797e-14
1.4590633e-12
1.5347165e-14
1.4422809e-12
1.6782472e-14
1.4243634e-12
1.791748e-14
1.405576e-12
1.8787394e-14
1.3861519e-12
1.9424113e-14
1.3662954e-12
1.9856466e-14
1.346185e-12
2.0110453e-14
1.3259755e-12
2.0209467e-14
1.305801e-12
2.0174506e-14
1.2857766e-12
2.0024377e-14
1.2660007e-12
1.9775891e-14
1.2465567e-12
1.9444037e-14
1.2275145e-12
1.9042153e-14
1.2089324e-12
1.8582083e-14
1.1908581e-12
1.8074318e-14
1.17333e-12
1.7528132e-14
1.1563783e-12
1.6951704e-14
1.1400261e-12
1.6352227e-14
1.12429e-12
1.5736011e-14
1.1091815e-12
1.5108576e-14
1.0947067e-12
1.4474739e-14
1.080868e-12
1.3838682e-14
1.067664e-12
1.3204027e-14
1.0550901e-12
1.2573897e-14
1.0431392e-12
1.1950968e-14
1.0318016e-12
1.1337522e-14
1.0210661e-12
1.073549e-14
1.0109196e-12
1.0146492e-14
1.0013478e-12
9.5718741e-15
9.9233504e-13
9.0127381e-15
9.8386507e-13
8.4699716e-15
9.7592079e-13
7.9442723e-15
9.6848462e-13
7.4361711e-15
9.6153857e-13
6.946052e-15
9.550644e-13
6.4741699e-15
9.4904373e-13
6.0206665e-15
9.4345815e-13
5.5855843e-15
9.3828927e-13
5.1688793e-15
9.3351884e-13
4.7704321e-15
9.2912878e-13
4.3900576e-15
9.2510126e-13
4.0275142e-15
9.2141875e-13
3.6825114e-15
9.1806404e-13
3.3547168e-15
9.1502027e-13
3.0437623e-15
9.1227102e-13
2.7492497e-15
9.0980027e-13
2.4707558e-15
9.0759243e-13
2.2078366e-15
9.056324e-13
1.9600312e-15
9.0390553e-13
1.7268659e-15
9.0239768e-13
1.5078565e-15
9.0109516e-13
1.302512e-15
8.9998483e-13
1.1103366e-15
8.9905399e-13
9.308321e-16
8.9829049e-13
7.6350023e-16
8.9768265e-13
6.0784414e-16
8.9721928e-13
4.6337026e-16
8.9688969e-13
3.2958969e-16
8.9668367e-13
2.0601953e-16
8.9659148e-13
9.2184085e-17
8.9660387e-13
-1.2384087e-17
8.9671201e-13
-1.0814315e-16
8.9690755e-13
-1.9554151e-16
8.9718257e-13
-2.750169e-16
8.9752956e-13
-3.4699652e-16
8.9794145e-13
-4.118943e-16
8.9841157e-13
-4.7011299e-16
8.9893361e-13
-5.2204294e-16
8.9950167e-13
-5.6806119e-16
9.001102e-13
-6.0853213e-16
9.0075401e-13
-6.4380702e-16
9.0142823e-13
-6.742237e-16
9.0212834e-13
-7.0010696e-16
9.028501e-13
-7.2176834e-16
9.0358961e-13
-7.3950609e-16
9.0434321e-13
-7.5360551e-16
9.0510755e-13
-7.64339e-16
9.0587952e-13
-7.7196614e-16
9.0665625e-13
-7.7673397e-16
9.0743512e-13
-7.7887724e-16
9.0821374e-13
-7.7861868e-16
9.0898991e-13
-7.761693e-16
9.0976164e-13
-7.717287e-16
9.1052712e-13
-7.6548535e-16
9.1128474e-13
-7.5761693e-16
9.1203303e-13
-7.4829063e-16
9.1277069e-13
-7.3766356e-16
9.1349657e-13
-7.2588305e-16
9.1420965e-13
-7.1308704e-16
9.1490906e-13
-6.9940445e-16
9.1559401e-13
-6.8495552e-16
9.1626386e-13
-6.698522e-16
9.1691806e-13
-6.541985e-16
9.1755615e-13
-6.3809085e-16
9.1817776e-13
-6.2161846e-16
9.1878262e-13
-6.0486366e-16
9.1937052e-13
-5.8790223e-16
9.1994133e-13
-5.7080378e-16
9.2049496e-13
-5.5363203e-16
9.210314e-13
-5.3644515e-16
9.2155069e-13
-5.1929607e-16
9.2205292e-13
-5.0223276e-16
9.2253822e-13
-4.8529855e-16
9.2300675e-13
-4.6853241e-16
9.2345872e-13
-4.519692e-16
9.2389435e-13
-4.3563992e-16
9.2431392e-13
-4.1957202e-16
9.2471771e-13
-4.0378955e-16
9.2510602e-13
-3.8831349e-16
9.2547918e-13
-3.7316189e-16
9.2583753e-13
-3.5835011e-16
9.2618141e-13
-3.4389103e-16
9.2651121e-13
-3.2979522e-16
9.2682727e-13
-3.1607114e-16
9.2713e-13
-3.027253e-16
9.2741975e-13
-2.8976239e-16
9.2769694e-13
-2.7718552e-16
9.2796193e-13
-2.6499627e-16
9.2821512e-13
-2.5319487e-16
9.284569e-13
-2.4178034e-16
9.2868764e-13
-2.3075057e-16
9.2890774e-13
-2.2010248e-16
9.2911757e-13
-2.0983207e-16
9.293175e-13
-1.9993458e-16
9.295079e-13
-1.9040453e-16
9.2968913e-13
-1.8123583e-16
9.2986155e-13
-1.7242187e-16
9.300255e-13
-1.6395557e-16
9.3018133e-13
-1.5582947e-16
9.3032936e-13
-1.4803578e-16
9.3046992e-13
-1.4056644e-16
9.3060333e-13
-1.334132e-16
9.3072989e-13
-1.2656762e-16
9.3084991e-13
-1.2002118e-16
9.3096367e-13
-1.1376527e-16
9.3107145e-13
-1.0779126e-16
9.3117354e-13
-1.020905e-16
9.3127018e-13
-9.6654418e-17
9.3136165e-13
-9.1474484e-17
9.3144819e-13
-8.654227e-17
9.3153003e-13
-8.1849482e-17
9.3160741e-13
-7.7387959e-17
9.3168056e-13
-7.314973e-17
9.3174968e-13
-6.9127005e-17
9.3181498e-13
-6.5312227e-17
9.3187667e-13
-6.1698072e-17
9.3193495e-13
-5.8277505e-17
9.3198998e-13
-5.5043783e-17
9.3204196e-13
-5.1990535e-17
9.3209107e-13
-4.9111779e-17
9.3213746e-13
-4.6402058e-17
9.3218131e-13
-4.3856525e-17
9.3222278e-13
-4.147122e-17
9.3226201e-13
-3.9243388e-17
9.3229918e-13
-3.7172257e-17
9.3233443e-13
-3.5260248e-17
9.3236794e-13
-3.3515589e-17
9.3239988e-13
-3.1957061e-17
9.324305e-13
-3.0623584e-17
9.3246008e-13
-2.9592291e-17
9.3248909e-13
-2.9013508e-17
9.3251825e-13
-2.9175543e-17
9.3254883e-13
-3.05834e-17
9.3258285e-13
-3.4031189e-17
9.3262417e-13
-4.1315299e-17
-5.5712495e-17
-4.7894876e-13
6.9007234e-13
-1.1894282e-12
1.0764067e-12
-1.7665931e-12
9.1227456e-13
-2.0875989e-12
5.4149088e-13
-2.1465867e-12
1.5049593e-13
-1.9866272e-12
-1.8192287e-13
-1.6647615e-12
-4.3142878e-13
-1.23554e-12
-5.9947097e-13
-7.4435488e-13
-6.9848053e-13
-2.2605818e-13
-7.4377635e-13
2.9390486e-13
-7.495893e-13
7.9790243e-13
-7.2799162e-13
1.274502e-12
-6.8855859e-13
1.7168359e-12
-6.3842815e-13
2.1212744e-12
-5.8271384e-13
2.4864574e-12
-5.2497625e-13
2.812567e-12
-4.6761012e-13
3.1007961e-12
-4.1216438e-13
3.3529722e-12
-3.5959002e-13
3.5712942e-12
-3.1042453e-13
3.758152e-12
-2.6492549e-13
3.916005e-12
-2.231649e-13
4.0473014e-12
-1.8509457e-13
4.1544256e-12
-1.5059077e-13
4.2396657e-12
-1.1948415e-13
4.3051933e-12
-9.1579715e-14
4.3530524e-12
-6.667002e-14
4.3851546e-12
-4.4543882e-14
4.4032782e-12
-2.4992196e-14
4.4090701e-12
-7.8119099e-15
4.40405e-12
7.1916611e-15
4.3896134e-12
2.020576e-14
4.3670365e-12
3.1409475e-14
4.3374813e-12
4.0971991e-14
4.3020025e-12
4.9051588e-14
4.2615541e-12
5.5795563e-14
4.2169962e-12
6.134044e-14
4.1691013e-12
6.5812304e-14
4.1185615e-12
6.9327218e-14
4.0659939e-12
7.1991697e-14
4.0119472e-12
7.3903206e-14
3.956907e-12
7.5150679e-14
3.9013014e-12
7.5815043e-14
3.8455061e-12
7.5969751e-14
3.7898492e-12
7.5681294e-14
3.7346154e-12
7.5009721e-14
3.6800503e-12
7.4009126e-14
3.6263643e-12
7.2728123e-14
3.5737361e-12
7.1210303e-14
3.5223158e-12
6.9494658e-14
3.4722279e-12
6.7615985e-14
3.4235744e-12
6.5605264e-14
3.3764366e-12
6.3490008e-14
3.330878e-12
6.1294589e-14
3.286946e-12
5.9040535e-14
3.244674e-12
5.674681e-14
3.2040826e-12
5.4430068e-14
3.1651817e-12
5.2104877e-14
3.1279717e-12
4.9783939e-14
3.0924444e-12
4.7478276e-14
3.0585845e-12
4.5197408e-14
3.0263705e-12
4.2949508e-14
2.9957754e-12
4.0741544e-14
2.9667679e-12
3.8579412e-14
2.9393126e-12
3.646805e-14
2.913371e-12
3.4411542e-14
2.8889021e-12
3.2413213e-14
2.8658625e-12
3.0475714e-14
2.8442075e-12
2.8601097e-14
2.8238908e-12
2.6790886e-14
2.8048653e-12
2.5046134e-14
2.7870834e-12
2.3367481e-14
2.7704971e-12
2.1755202e-14
2.7550583e-12
2.0209253e-14
2.740719e-12
1.8729308e-14
2.7274317e-12
1.7314794e-14
2.7151493e-12
1.5964925e-14
2.7038253e-12
1.4678731e-14
2.693414e-12
1.345508e-14
2.6838705e-12
1.2292703e-14
2.6751511e-12
1.1190217e-14
2.6672128e-12
1.0146137e-14
2.6600139e-12
9.1588991e-15
2.6535139e-12
8.2268723e-15
2.6476734e-12
7.3483717e-15
2.6424542e-12
6.5216716e-15
2.6378195e-12
5.7450159e-15
2.6337337e-12
5.0166278e-15
2.6301625e-12
4.3347185e-15
2.6270729e-12
3.6974955e-15
2.6244331e-12
3.1031691e-15
2.6222127e-12
2.549959e-15
2.6203826e-12
2.0361e-15
2.618915e-12
1.5598469e-15
2.6177831e-12
1.1194793e-15
2.6169616e-12
7.1330539e-16
2.6164264e-12
3.3966472e-16
2.6161545e-12
-3.0676734e-18
2.616124e-12
-3.1647829e-16
2.6163142e-12
-6.0211356e-16
2.6167056e-12
-8.6147931e-16
2.6172796e-12
-1.0960377e-15
2.6180187e-12
-1.3072042e-15
2.6189065e-12
-1.4963502e-15
2.6199275e-12
-1.6647999e-15
2.6210671e-12
-1.8138299e-15
2.6223117e-12
-1.9446698e-15
2.6236484e-12
-2.0585015e-15
2.6250654e-12
-2.156459e-15
2.6265514e-12
-2.239629e-15
2.6280961e-12
-2.3090517e-15
2.6296898e-12
-2.3657202e-15
2.6313237e-12
-2.4105818e-15
2.6329893e-12
-2.4445389e-15
2.6346792e-12
-2.4684496e-15
2.6363861e-12
-2.4831288e-15
2.6381038e-12
-2.4893492e-15
2.6398261e-12
-2.4878424e-15
2.6415478e-12
-2.4793e-15
2.6432639e-12
-2.4643745e-15
2.6449699e-12
-2.443681e-15
2.6466618e-12
-2.417798e-15
2.648336e-12
-2.387269e-15
2.6499892e-12
-2.3526037e-15
2.6516185e-12
-2.3142792e-15
2.6532214e-12
-2.2727412e-15
2.6547956e-12
-2.2284059e-15
2.6563392e-12
-2.1816605e-15
2.6578504e-12
-2.1328649e-15
2.6593279e-12
-2.0823531e-15
2.6607704e-12
-2.0304341e-15
2.662177e-12
-1.9773931e-15
2.6635469e-12
-1.9234932e-15
2.6648794e-12
-1.868976e-15
2.6661742e-12
-1.8140629e-15
2.6674309e-12
-1.7589565e-15
2.6686494e-12
-1.7038412e-15
2.6698298e-12
-1.6488844e-15
2.670972e-12
-1.5942379e-15
2.6720764e-12
-1.5400382e-15
2.6731433e-12
-1.486408e-15
2.6741729e-12
-1.4334566e-15
2.6751659e-12
-1.3812812e-15
2.6761227e-12
-1.3299675e-15
2.6770439e-12
-1.2795905e-15
2.6779302e-12
-1.2302151e-15
2.6787823e-12
-1.1818972e-15
2.679601e-12
-1.1346841e-15
2.6803868e-12
-1.0886152e-15
2.6811408e-12
-1.0437226e-15
2.6818636e-12
-1.0000317e-15
2.6825562e-12
-9.5756185e-16
2.6832193e-12
-9.1632657e-16
2.6838539e-12
-8.7633442e-16
2.6844607e-12
-8.3758922e-16
2.6850407e-12
-8.0009054e-16
2.6855947e-12
-7.6383411e-16
2.6861236e-12
-7.2881225e-16
2.6866282e-12
-6.9501412e-16
2.6871094e-12
-6.6242618e-16
2.687568e-12
-6.3103242e-16
2.6880048e-12
-6.0081468e-16
2.6884207e-12
-5.7175294e-16
2.6888165e-12
-5.4382555e-16
2.689193e-12
-5.1700948e-16
2.6895508e-12
-4.9128053e-16
2.6898909e-12
-4.6661354e-16
2.6902138e-12
-4.429826e-16
2.6905204e-12
-4.2036118e-16
2.6908113e-12
-3.9872232e-16
2.6910873e-12
-3.7803877e-16
2.6913489e-12
-3.5828314e-16
2.6915968e-12
-3.3942799e-16
2.6918317e-12
-3.2144601e-16
2.6920542e-12
-3.0431007e-16
2.6922648e-12
-2.8799336e-16
2.6924641e-12
-2.7246947e-16
2.6926527e-12
-2.577125e-16
2.692831e-12
-2.4369716e-16
2.6929997e-12
-2.3039887e-16
2.6931592e-12
-2.1779386e-16
2.6933101e-12
-2.0585933e-16
2.6934526e-12
-1.9457358e-16
2.6935874e-12
-1.839163e-16
2.6937149e-12
-1.738688e-16
2.6938354e-12
-1.6441455e-16
2.6939495e-12
-1.5553989e-16
2.6940575e-12
-1.4723528e-16
2.6941598e-12
-1.3949737e-16
2.6942568e-12
-1.3233263e-16
2.6943491e-12
-1.2576386e-16
2.694437e-12
-1.1984177e-16
2.694521e-12
-1.1466568e-16
2.6946018e-12
-1.1041962e-16
2.6946802e-12
-1.0743431e-16
2.6947573e-12
-1.0628284e-16
2.6948346e-12
-1.0787876e-16
2.6949141e-12
-1.1352003e-16
2.6949978e-12
-1.2499368e-16
-1.4336899e-16
-6.1008302e-13
1.3001554e-12
-1.3489321e-12
1.8152558e-12
-1.8010069e-12
1.3643493e-12
-1.9086535e-12
6.491375e-13
-1.7217831e-12
-3.6374467e-14
-1.3156433e-12
-5.8806274e-13
-7.6373537e-13
-9.8333668e-13
-1.2642089e-13
-1.2367854e-12
5.5087995e-13
-1.3757814e-12
1.2356461e-12
-1.4285425e-12
1.9056664e-12
-1.4196096e-12
2.5462611e-12
-1.3685863e-12
3.1481175e-12
-1.290415e-12
3.705765e-12
-1.1960756e-12
4.2164548e-12
-1.0934037e-12
4.6793326e-12
-9.87854e-13
5.094849e-12
-8.8312653e-13
5.4643397e-12
-7.816551e-13
5.7897259e-12
-6.8497624e-13
6.0733016e-12
-5.9400025e-13
6.3175825e-12
-5.0920641e-13
6.5251989e-12
-4.3078129e-13
6.6988196e-12
-3.5871524e-13
6.841098e-12
-2.9286916e-13
6.954634e-12
-2.3302017e-13
7.0419471e-12
-1.788928e-13
7.1054575e-12
-1.301804e-13
7.1474734e-12
-8.6559857e-14
7.1701833e-12
-4.7702065e-14
7.175651e-12
-1.3279573e-14
7.1658134e-12
1.7029268e-14
7.1424785e-12
4.35406e-14
7.1073256e-12
6.6562408e-14
7.0619076e-12
8.6389983e-14
7.0076553e-12
1.0330389e-13
6.9458817e-12
1.175692e-13
6.877787e-12
1.294351e-13
6.8044645e-12
1.3913483e-13
6.7269059e-12
1.4688582e-13
6.6460075e-12
1.5289004e-13
6.5625764e-12
1.5733437e-13
6.4773358e-12
1.6039123e-13
6.3909317e-12
1.6221913e-13
6.3039381e-12
1.6296336e-13
6.2168627e-12
1.6275673e-13
6.1301521e-12
1.6172028e-13
6.0441972e-12
1.5996405e-13
5.9593376e-12
1.5758777e-13
5.8758662e-12
1.5468166e-13
5.7940338e-12
1.5132708e-13
5.7140525e-12
1.4759723e-13
5.6361e-12
1.4355783e-13
5.5603223e-12
1.3926769e-13
5.4868376e-12
1.3477933e-13
5.4157386e-12
1.3013954e-13
5.3470955e-12
1.2538983e-13
5.2809586e-12
1.2056698e-13
5.2173601e-12
1.1570341e-13
5.1563164e-12
1.1082766e-13
5.09783e-12
1.0596469e-13
5.0418911e-12
1.0113628e-13
4.9884793e-12
9.6361325e-14
4.9375647e-12
9.1656098e-14
4.8891096e-12
8.7034554e-14
4.8430691e-12
8.250854e-14
4.7993926e-12
7.8088021e-14
4.7580245e-12
7.3781276e-14
4.7189052e-12
6.9595075e-14
4.6819714e-12
6.553484e-14
4.6471575e-12
6.1604792e-14
4.6143956e-12
5.7808084e-14
4.5836161e-12
5.4146916e-14
4.5547487e-12
5.0622648e-14
4.5277221e-12
4.7235891e-14
4.5024648e-12
4.3986599e-14
4.4789054e-12
4.0874148e-14
4.4569729e-12
3.7897402e-14
4.4365969e-12
3.5054783e-14
4.4177076e-12
3.2344326e-14
4.4002366e-12
2.9763731e-14
4.3841164e-12
2.7310409e-14
4.369281e-12
2.4981529e-14
4.3556659e-12
2.277405e-14
4.343208e-12
2.0684759e-14
4.331846e-12
1.8710301e-14
4.3215205e-12
1.684721e-14
4.3121736e-12
1.5091928e-14
4.3037494e-12
1.3440835e-14
4.2961938e-12
1.1890263e-14
4.2894548e-12
1.0436519e-14
4.2834821e-12
9.0759009e-15
4.2782273e-12
7.8047103e-15
4.2736442e-12
6.6192678e-15
4.2696881e-12
5.5159244e-15
4.2663165e-12
4.4910721e-15
4.2634887e-12
3.5411533e-15
4.2611656e-12
2.6626691e-15
4.2593104e-12
1.8521869e-15
4.2578876e-12
1.1063472e-15
4.2568636e-12
4.2186692e-16
4.2562066e-12
-2.0445295e-16
4.2558862e-12
-7.7572339e-16
4.255874e-12
-1.2949658e-15
4.2561428e-12
-1.7651114e-15
4.256667e-12
-2.1889948e-15
4.2574225e-12
-2.569353e-15
4.2583866e-12
-2.9088276e-15
4.2595381e-12
-3.2099617e-15
4.2608568e-12
-3.4751989e-15
4.2623241e-12
-3.7068858e-15
4.2639223e-12
-3.9072716e-15
4.2656351e-12
-4.0785079e-15
4.2674472e-12
-4.2226507e-15
4.2693443e-12
-4.3416618e-15
4.2713133e-12
-4.4374104e-15
4.2733418e-12
-4.5116749e-15
4.2754186e-12
-4.566145e-15
4.2775332e-12
-4.6024237e-15
4.2796759e-12
-4.6220291e-15
4.2818379e-12
-4.6263975e-15
4.2840111e-12
-4.616885e-15
4.2861881e-12
-4.5947709e-15
4.2883621e-12
-4.5612594e-15
4.290527e-12
-4.517483e-15
4.2926772e-12
-4.4645047e-15
4.2948078e-12
-4.4033208e-15
4.2969142e-12
-4.3348636e-15
4.2989926e-12
-4.2600038e-15
4.3010393e-12
-4.1795537e-15
4.3030512e-12
-4.094269e-15
4.3050256e-12
-4.0048522e-15
4.3069602e-12
-3.9119545e-15
4.3088528e-12
-3.8161787e-15
4.3107019e-12
-3.7180814e-15
4.3125061e-12
-3.6181753e-15
4.314264e-12
-3.5169318e-15
4.315975e-12
-3.414783e-15
4.3176382e-12
-3.312124e-15
4.3192533e-12
-3.2093149e-15
4.3208199e-12
-3.1066829e-15
4.322338e-12
-3.0045243e-15
4.3238077e-12
-2.9031064e-15
4.3252291e-12
-2.8026691e-15
4.3266025e-12
-2.7034271e-15
4.3279285e-12
-2.6055709e-15
4.3292076e-12
-2.509269e-15
4.3304403e-12
-2.4146694e-15
4.3316275e-12
-2.3219004e-15
4.33277e-12
-2.231073e-15
4.3338686e-12
-2.1422812e-15
4.3349241e-12
-2.055604e-15
4.3359377e-12
-1.9711063e-15
4.3369102e-12
-1.8888399e-15
4.3378427e-12
-1.808845e-15
4.3387362e-12
-1.7311505e-15
4.3395919e-12
-1.6557756e-15
4.3404108e-12
-1.5827305e-15
4.341194e-12
-1.512017e-15
4.3419426e-12
-1.4436295e-15
4.3426578e-12
-1.3775559e-15
4.3433405e-12
-1.3137778e-15
4.343992e-12
-1.2522717e-15
4.3446132e-12
-1.1930093e-15
4.3452053e-12
-1.135958e-15
4.3457694e-12
-1.0810818e-15
4.3463065e-12
-1.0283413e-15
4.3468176e-12
-9.7769466e-16
4.3473037e-12
-9.2909753e-16
4.3477658e-12
-8.8250385e-16
4.3482049e-12
-8.3786601e-16
4.348622e-12
-7.9513522e-16
4.349018e-12
-7.5426188e-16
4.3493938e-12
-7.1519578e-16
4.3497502e-12
-6.7788647e-16
4.3500882e-12
-6.4228344e-16
4.3504085e-12
-6.083364e-16
4.350712e-12
-5.7599551e-16
4.3509995e-12
-5.4521156e-16
4.3512718e-12
-5.1593625e-16
4.3515295e-12
-4.881224e-16
4.3517734e-12
-4.6172418e-16
4.3520042e-12
-4.3669741e-16
4.3522227e-12
-4.1299991e-16
4.3524293e-12
-3.9059194e-16
4.3526249e-12
-3.694368e-16
4.35281e-12
-3.4950173e-16
4.3529852e-12
-3.3075925e-16
4.3531511e-12
-3.1318922e-16
4.3533084e-12
-2.9678228e-16
4.3534576e-12
-2.8154537e-16
4.3535994e-12
-2.6751105e-16
4.3537343e-12
-2.5475303e-16
4.353863e-12
-2.4341159e-16
4.3539863e-12
-2.3373426e-16
4.354105e-12
-2.2613654e-16
4.35422e-12
-2.2128261e-16
4.3543323e-12
-2.2013948e-16
4.3544427e-12
-2.2388907e-16
4.3545512e-12
-2.3350675e-16
-2.4913182e-16
-6.121821e-13
1.9123375e-12
-1.0440928e-12
2.2471665e-12
-9.9075652e-13
1.3110131e-12
-5.8685165e-13
2.4523262e-13
2.9341252e-14
-6.5256737e-13
7.6037452e-13
-1.319096e-12
1.5395058e-12
-1.762468e-12
2.3251896e-12
-2.0224692e-12
3.0931797e-12
-2.1437715e-12
3.829523e-12
-2.1648858e-12
4.5261939e-12
-2.1162805e-12
5.1786982e-12
-2.0210905e-12
5.7846696e-12
-1.8963865e-12
6.3430867e-12
-1.7544927e-12
6.8538364e-12
-1.6041534e-12
7.3174537e-12
-1.4514713e-12
7.7349553e-12
-1.3006281e-12
8.1077253e-12
-1.1544251e-12
8.4374299e-12
-1.0146808e-12
8.7259506e-12
-8.8252096e-13
8.9753293e-12
-7.5858511e-13
9.1877219e-12
-6.4317392e-13
9.365359e-12
-5.3635235e-13
9.5105119e-12
-4.3802204e-13
9.6254635e-12
-3.4797177e-13
9.7124836e-12
-2.6591295e-13
9.7738081e-12
-1.9150488e-13
9.8116214e-12
-1.243731e-13
9.8280425e-12
-6.4123234e-14
9.8251147e-12
-1.0351747e-14
9.8047935e-12
3.7350462e-14
9.7689383e-12
7.9395796e-14
9.719308e-12
1.1619274e-13
9.6575589e-12
1.4813908e-13
9.5852434e-12
1.7561937e-13
9.5038097e-12
1.9900294e-13
9.4146024e-12
2.1864231e-13
9.3188651e-12
2.3487214e-13
9.2177423e-12
2.4800862e-13
9.1122833e-12
2.5834907e-13
9.0034457e-12
2.6617196e-13
8.8920999e-12
2.71737e-13
8.7790335e-12
2.7528558e-13
8.6649556e-12
2.7704121e-13
8.5505021e-12
2.7721022e-13
8.43624e-12
2.7598243e-13
8.322672e-12
2.73532e-13
8.2102416e-12
2.7001819e-13
8.099337e-12
2.6558631e-13
7.9902955e-12
2.6036851e-13
7.8834081e-12
2.544847e-13
7.7789225e-12
2.4804336e-13
7.6770478e-12
2.4114239e-13
7.5779573e-12
2.338699e-13
7.4817918e-12
2.2630495e-13
7.3886634e-12
2.1851831e-13
7.2986572e-12
2.1057312e-13
7.2118351e-12
2.0252551e-13
7.1282375e-12
1.9442527e-13
7.0478859e-12
1.8631632e-13
6.9707848e-12
1.7823732e-13
6.8969241e-12
1.7022208e-13
6.8262801e-12
1.6230006e-13
6.7588179e-12
1.5449674e-13
6.6944925e-12
1.4683402e-13
6.6332499e-12
1.3933058e-13
6.575029e-12
1.3200216e-13
6.5197622e-12
1.2486188e-13
6.4673765e-12
1.1792052e-13
6.4177946e-12
1.111867e-13
6.3709355e-12
1.0466717e-13
6.3267155e-12
9.8366979e-14
6.2850485e-12
9.2289646e-14
6.245847e-12
8.6437355e-14
6.2090225e-12
8.0811085e-14
6.1744859e-12
7.5410755e-14
6.142148e-12
7.0235344e-14
6.1119198e-12
6.5283006e-14
6.0837129e-12
6.0551172e-14
6.05744e-12
5.6036642e-14
6.0330148e-12
5.1735666e-14
6.0103523e-12
4.7644025e-14
5.9893692e-12
4.3757095e-14
5.9699841e-12
4.006991e-14
5.9521171e-12
3.6577222e-14
5.9356908e-12
3.3273548e-14
5.9206295e-12
3.0153215e-14
5.9068599e-12
2.7210406e-14
5.894311e-12
2.4439194e-14
5.882914e-12
2.183358e-14
5.8726023e-12
1.9387517e-14
5.8633121e-12
1.7094944e-14
5.8549816e-12
1.4949807e-14
5.8475514e-12
1.2946081e-14
5.8409647e-12
1.1077793e-14
5.8351668e-12
9.3390356e-15
5.8301055e-12
7.7239855e-15
5.8257308e-12
6.2269155e-15
5.8219949e-12
4.8422076e-15
5.8188524e-12
3.5643623e-15
5.8162599e-12
2.3880091e-15
5.8141763e-12
1.3079134e-15
5.8125624e-12
3.18981e-16
5.811381e-12
-5.8373129e-16
5.810597e-12
-1.4050133e-15
5.8101771e-12
-2.1495016e-15
5.81009e-12
-2.8216786e-15
5.8103059e-12
-3.4258632e-15
5.8107969e-12
-3.9662142e-15
5.8115368e-12
-4.4467317e-15
5.8125007e-12
-4.8712554e-15
5.8136657e-12
-5.2434646e-15
5.8150099e-12
-5.5668814e-15
5.8165131e-12
-5.8448718e-15
5.8181564e-12
-6.0806487e-15
5.819922e-12
-6.2772742e-15
5.8217935e-12
-6.437663e-15
5.8237557e-12
-6.5645851e-15
5.8257943e-12
-6.6606694e-15
5.8278963e-12
-6.7284072e-15
5.8300496e-12
-6.7701566e-15
5.832243e-12
-6.7881459e-15
5.8344662e-12
-6.7844783e-15
5.8367098e-12
-6.7611356e-15
5.8389653e-12
-6.7199829e-15
5.8412248e-12
-6.6627726e-15
5.843481e-12
-6.591149e-15
5.8457277e-12
-6.5066523e-15
5.8479589e-12
-6.410723e-15
5.8501693e-12
-6.3047065e-15
5.8523543e-12
-6.1898566e-15
5.8545097e-12
-6.0673404e-15
5.8566317e-12
-5.9382419e-15
5.8587172e-12
-5.8035662e-15
5.8607633e-12
-5.6642433e-15
5.8627675e-12
-5.521132e-15
5.8647277e-12
-5.3750237e-15
5.8666423e-12
-5.2266457e-15
5.8685096e-12
-5.0766652e-15
5.8703286e-12
-4.9256921e-15
5.8720984e-12
-4.7742829e-15
5.8738182e-12
-4.6229432e-15
5.8754877e-12
-4.4721314e-15
5.8771065e-12
-4.3222611e-15
5.8786746e-12
-4.1737042e-15
5.8801922e-12
-4.0267936e-15
5.8816593e-12
-3.8818255e-15
5.8830765e-12
-3.7390623e-15
5.8844441e-12
-3.5987345e-15
5.8857629e-12
-3.4610433e-15
5.8870335e-12
-3.3261625e-15
5.8882566e-12
-3.1942406e-15
5.8894332e-12
-3.0654028e-15
5.8905641e-12
-2.9397525e-15
5.8916503e-12
-2.8173737e-15
5.8926928e-12
-2.6983317e-15
5.8936928e-12
-2.5826754e-15
5.8946512e-12
-2.4704383e-15
5.8955692e-12
-2.3616402e-15
5.8964479e-12
-2.256288e-15
5.8972885e-12
-2.1543776e-15
5.8980922e-12
-2.0558944e-15
5.89886e-12
-1.9608146e-15
5.8995931e-12
-1.8691063e-15
5.9002928e-12
-1.7807302e-15
5.9009601e-12
-1.6956409e-15
5.9015962e-12
-1.6137871e-15
5.9022022e-12
-1.5351128e-15
5.9027792e-12
-1.4595579e-15
5.9033284e-12
-1.3870586e-15
5.9038508e-12
-1.3175486e-15
5.9043475e-12
-1.250959e-15
5.9048195e-12
-1.1872192e-15
5.9052679e-12
-1.1262574e-15
5.9056936e-12
-1.0680008e-15
5.9060977e-12
-1.0123764e-15
5.906481e-12
-9.5931107e-16
5.9068445e-12
-9.0873219e-16
5.9071891e-12
-8.6056791e-16
5.9075157e-12
-8.1474758e-16
5.9078252e-12
-7.7120222e-16
5.9081184e-12
-7.2986493e-16
5.9083961e-12
-6.9067146e-16
5.908659e-12
-6.5356089e-16
5.9089081e-12
-6.1847652e-16
5.9091439e-12
-5.8536712e-16
5.9093673e-12
-5.5418868e-16
5.9095791e-12
-5.2490711e-16
5.9097798e-12
-4.9750228e-16
5.9099702e-12
-4.7197438e-16
5.910151e-12
-4.4835386e-16
5.910323e-12
-4.2671675e-16
5.9104868e-12
-4.0720811e-16
5.9106431e-12
-3.9007552e-16
5.9107927e-12
-3.7571359e-16
5.9109362e-12
-3.6471215e-16
5.9110739e-12
-3.578638e-16
5.911206e-12
-3.5601558e-16
5.9113321e-12
-3.5958935e-16
-3.693179e-16
-4.2226052e-13
2.334598e-12
-9.6733154e-15
1.8345793e-12
1.004149e-12
2.971908e-13
2.161181e-12
-9.1179944e-13
3.2808487e-12
-1.772235e-12
4.3043047e-12
-2.342552e-12
5.2195638e-12
-2.6777271e-12
6.0356904e-12
-2.8385959e-12
6.7678504e-12
-2.8759315e-12
7.4300382e-12
-2.8270736e-12
8.033073e-12
-2.7193153e-12
8.5846761e-12
-2.5726937e-12
9.0901014e-12
-2.4018118e-12
9.5528381e-12
-2.2172294e-12
9.9752152e-12
-2.0265304e-12
1.0358859e-11
-1.8351147e-12
1.0705014e-11
-1.6467832e-12
1.1014761e-11
-1.4641722e-12
1.1289152e-11
-1.289072e-12
1.1529292e-11
-1.1226606e-12
1.1736378e-11
-9.6567131e-13
1.1911718e-11
-8.1851408e-13
1.2056727e-11
-6.813618e-13
1.2172918e-11
-5.5421255e-13
1.2261881e-11
-4.3693444e-13
1.2325266e-11
-3.2929847e-13
1.2364765e-11
-2.3100351e-13
1.2382087e-11
-1.4169566e-13
1.2378948e-11
-6.0983939e-14
1.2357048e-11
1.1548613e-14
1.2318054e-11
7.6343544e-14
1.2263592e-11
1.3385869e-13
1.2195231e-11
1.8455326e-13
1.2114486e-11
2.2888376e-13
1.2022805e-11
2.6730044e-13
1.1921565e-11
3.0024352e-13
1.1812067e-11
3.2814011e-13
1.1695537e-11
3.5140189e-13
1.1573123e-11
3.7042327e-13
1.1445892e-11
3.8558007e-13
1.1314835e-11
3.9722859e-13
1.1180867e-11
4.057051e-13
1.1044827e-11
4.1132558e-13
1.0907482e-11
4.143858e-13
1.0769531e-11
4.1516156e-13
1.0631604e-11
4.1390916e-13
1.049427e-11
4.1086597e-13
1.0358037e-11
4.0625113e-13
1.0223357e-11
4.0026632e-13
1.0090629e-11
3.9309666e-13
9.9602023e-12
3.849115e-13
9.8323803e-12
3.7586539e-13
9.7074237e-12
3.6609894e-13
9.5855539e-12
3.5573974e-13
9.4669557e-12
3.4490319e-13
9.3517805e-12
3.3369344e-13
9.2401496e-12
3.2220409e-13
9.132156e-12
3.1051911e-13
9.0278678e-12
2.9871348e-13
8.9273301e-12
2.8685396e-13
8.8305677e-12
2.7499976e-13
8.7375866e-12
2.6320312e-13
8.6483767e-12
2.5150998e-13
8.562913e-12
2.3996045e-13
8.4811576e-12
2.2858939e-13
8.4030614e-12
2.1742683e-13
8.3285651e-12
2.0649846e-13
8.257601e-12
1.9582599e-13
8.1900939e-12
1.8542757e-13
8.1259625e-12
1.753181e-13
8.0651201e-12
1.6550956e-13
8.0074758e-12
1.5601133e-13
7.952935e-12
1.4683039e-13
7.9014008e-12
1.3797164e-13
7.8527738e-12
1.2943809e-13
7.8069535e-12
1.2123104e-13
7.7638385e-12
1.1335032e-13
7.7233271e-12
1.0579442e-13
7.6853176e-12
9.8560654e-14
7.6497089e-12
9.1645324e-14
7.6164008e-12
8.5043817e-14
7.5852941e-12
7.8750743e-14
7.5562911e-12
7.2760036e-14
7.529296e-12
6.706505e-14
7.5042145e-12
6.1658651e-14
7.4809548e-12
5.6533297e-14
7.4594269e-12
5.1681105e-14
7.4395434e-12
4.7093926e-14
7.4212192e-12
4.2763396e-14
7.4043718e-12
3.8680998e-14
7.3889212e-12
3.4838106e-14
7.3747901e-12
3.1226029e-14
7.3619038e-12
2.7836054e-14
7.3501904e-12
2.465948e-14
7.3395806e-12
2.1687647e-14
7.3300077e-12
1.8911971e-14
7.3214077e-12
1.6323963e-14
7.3137193e-12
1.3915255e-14
7.3068839e-12
1.1677618e-14
7.3008453e-12
9.6029805e-15
7.2955499e-12
7.6834439e-15
7.2909465e-12
5.9112934e-15
7.2869865e-12
4.2790102e-15
7.2836235e-12
2.7792817e-15
7.2808134e-12
1.405006e-15
7.2785146e-12
1.49299e-16
7.2766875e-12
-9.9449521e-16
7.2752944e-12
-2.0328046e-15
7.2743e-12
-2.971833e-15
7.2736708e-12
-3.8175579e-15
7.2733753e-12
-4.5757225e-15
7.2733837e-12
-5.2518403e-15
7.273668e-12
-5.8511987e-15
7.274202e-12
-6.3788593e-15
7.274961e-12
-6.8396605e-15
7.275922e-12
-7.2382223e-15
7.2770632e-12
-7.5789495e-15
7.2783647e-12
-7.8660357e-15
7.2798075e-12
-8.1034679e-15
7.2813741e-12
-8.2950321e-15
7.2830483e-12
-8.4443184e-15
7.2848149e-12
-8.5547267e-15
7.2866599e-12
-8.6294722e-15
7.2885703e-12
-8.6715915e-15
7.2905343e-12
-8.6839489e-15
7.2925407e-12
-8.6692419e-15
7.2945796e-12
-8.6300076e-15
7.2966416e-12
-8.5686291e-15
7.2987182e-12
-8.4873412e-15
7.3008017e-12
-8.3882368e-15
7.3028851e-12
-8.2732726e-15
7.3049621e-12
-8.1442755e-15
7.3070268e-12
-8.0029482e-15
7.3090741e-12
-7.8508751e-15
7.3110994e-12
-7.6895278e-15
7.3130985e-12
-7.520271e-15
7.3150679e-12
-7.3443672e-15
7.3170042e-12
-7.1629828e-15
7.3189047e-12
-6.9771927e-15
7.320767e-12
-6.7879852e-15
7.322589e-12
-6.5962671e-15
7.3243689e-12
-6.4028681e-15
7.3261053e-12
-6.2085455e-15
7.3277971e-12
-6.0139881e-15
7.3294432e-12
-5.8198207e-15
7.331043e-12
-5.6266081e-15
7.332596e-12
-5.4348585e-15
7.334102e-12
-5.2450276e-15
7.3355608e-12
-5.0575219e-15
7.3369724e-12
-4.8727019e-15
7.3383372e-12
-4.6908855e-15
7.3396553e-12
-4.5123511e-15
7.3409272e-12
-4.3373399e-15
7.3421535e-12
-4.1660594e-15
7.3433348e-12
-3.9986853e-15
7.3444719e-12
-3.8353644e-15
7.3455654e-12
-3.6762165e-15
7.3466163e-12
-3.5213372e-15
7.3476255e-12
-3.3707992e-15
7.3485938e-12
-3.2246549e-15
7.3495224e-12
-3.0829379e-15
7.3504122e-12
-2.9456648e-15
7.3512642e-12
-2.8128367e-15
7.3520795e-12
-2.6844411e-15
7.3528592e-12
-2.5604529e-15
7.3536044e-12
-2.440836e-15
7.3543162e-12
-2.3255444e-15
7.3549956e-12
-2.2145237e-15
7.3556438e-12
-2.1077115e-15
7.3562617e-12
-2.0050393e-15
7.3568506e-12
-1.9064327e-15
7.3574115e-12
-1.8118127e-15
7.3579454e-12
-1.7210964e-15
7.3584533e-12
-1.6341978e-15
7.3589363e-12
-1.5510284e-15
7.3593954e-12
-1.4714983e-15
7.3598316e-12
-1.3955163e-15
7.3602459e-12
-1.3229906e-15
7.3606392e-12
-1.2538301e-15
7.3610124e-12
-1.1879439e-15
7.3613664e-12
-1.125243e-15
7.3617022e-12
-1.06564e-15
7.3620205e-12
-1.0090507e-15
7.3623224e-12
-9.5539451e-16
7.3626085e-12
-9.0459554e-16
7.3628797e-12
-8.5658432e-16
7.3631368e-12
-8.1129961e-16
7.3633806e-12
-7.6869127e-16
7.3636118e-12
-7.2872433e-16
7.3638312e-12
-6.9138489e-16
7.3640396e-12
-6.5668884e-16
7.3642376e-12
-6.2469427e-16
7.3644259e-12
-5.9551871e-16
7.3646051e-12
-5.6936136e-16
7.364776e-12
-5.4652765e-16
7.3649387e-12
-5.2744992e-16
7.3650935e-12
-5.1267183e-16
7.3652402e-12
-5.0272609e-16
7.3653784e-12
-4.9777848e-16
-4.9956412e-16
4.4164663e-13
1.8929514e-12
2.771775e-12
-4.9554904e-13
5.0827246e-12
-2.0137589e-12
6.9158598e-12
-2.7449346e-12
8.3079921e-12
-3.1643674e-12
9.3589355e-12
-3.3934954e-12
1.0166287e-11
-3.4850786e-12
1.0807133e-11
-3.4794422e-12
1.1335331e-11
-3.4041296e-12
1.1786351e-11
-3.2780935e-12
1.2182778e-11
-3.1157417e-12
1.2538545e-11
-2.9284613e-12
1.2861939e-11
-2.7252054e-12
1.3157648e-11
-2.5129383e-12
1.342814e-11
-2.2970226e-12
1.3674569e-11
-2.0815435e-12
1.3897365e-11
-1.869579e-12
1.4096616e-11
-1.6634231e-12
1.4272306e-11
-1.4647621e-12
1.4424457e-11
-1.274812e-12
1.4553209e-11
-1.0944236e-12
1.4658857e-11
-9.2416114e-13
1.4741858e-11
-7.6436284e-13
1.4802831e-11
-6.1518639e-13
1.4842542e-11
-4.7664464e-13
1.4861877e-11