/*--------------------------------*- C++ -*----------------------------------*\
| =========                 |                                                 |
| \\      /  F ield         | OpenFOAM: The Open Source CFD Toolbox           |
|  \\    /   O peration     | Version:  2406                                  |
|   \\  /    A nd           | Website:  www.openfoam.com                      |
|    \\/     M anipulation  |                                                 |
\*---------------------------------------------------------------------------*/
FoamFile
{
    version     2.0;
    format      ascii;
    arch        "LSB;label=32;scalar=64";
    class       volScalarField;
    location    "1255";
    object      p;
}
// * * * * * * * * * * * * * * * * * * * * * * * * * * * * * * * * * * * * * //

dimensions      [0 2 -2 0 0 0 0];

internalField   nonuniform List<scalar> 
10200
(
-0.0011621342
-0.0011660346
-0.0011671476
-0.0011634105
-0.0011552866
-0.0011436883
-0.0011295928
-0.0011138988
-0.0010973568
-0.0010805563
-0.0010639376
-0.0010478131
-0.0010323906
-0.0010177958
-0.0010040922
-0.00099129821
-0.00097940106
-0.00096836763
-0.00095815238
-0.0009487032
-0.00093996536
-0.00093188423
-0.00092440693
-0.00091748328
-0.00091106632
-0.00090511244
-0.00089958135
-0.00089443596
-0.00088964213
-0.00088516848
-0.00088098609
-0.00087706835
-0.00087339071
-0.00086993051
-0.00086666679
-0.0008635802
-0.00086065282
-0.00085786806
-0.0008552106
-0.00085266621
-0.00085022175
-0.00084786505
-0.00084558486
-0.00084337074
-0.00084121304
-0.00083910285
-0.00083703189
-0.00083499249
-0.00083297755
-0.00083098047
-0.00082899513
-0.00082701583
-0.00082503725
-0.00082305445
-0.00082106281
-0.00081905798
-0.0008170359
-0.00081499276
-0.00081292496
-0.00081082911
-0.00080870201
-0.00080654061
-0.00080434204
-0.00080210355
-0.00079982254
-0.00079749652
-0.00079512311
-0.00079270005
-0.00079022515
-0.00078769632
-0.00078511157
-0.00078246896
-0.00077976665
-0.00077700285
-0.00077417585
-0.00077128401
-0.00076832572
-0.00076529947
-0.00076220378
-0.00075903722
-0.00075579845
-0.00075248614
-0.00074909903
-0.00074563592
-0.00074209564
-0.00073847709
-0.00073477919
-0.00073100093
-0.00072714136
-0.00072319955
-0.00071917462
-0.00071506577
-0.00071087221
-0.00070659323
-0.00070222814
-0.00069777633
-0.00069323721
-0.00068861026
-0.00068389501
-0.00067909103
-0.00067419796
-0.00066921549
-0.00066414334
-0.00065898131
-0.00065372926
-0.0006483871
-0.00064295478
-0.00063743233
-0.00063181984
-0.00062611746
-0.0006203254
-0.00061444393
-0.0006084734
-0.00060241421
-0.00059626683
-0.00059003182
-0.0005837098
-0.00057730144
-0.00057080753
-0.00056422889
-0.00055756644
-0.00055082118
-0.00054399419
-0.00053708663
-0.00053009972
-0.00052303481
-0.0005158933
-0.00050867668
-0.00050138655
-0.00049402457
-0.00048659253
-0.00047909227
-0.00047152575
-0.00046389501
-0.00045620219
-0.00044844953
-0.00044063936
-0.00043277411
-0.0004248563
-0.00041688855
-0.00040887358
-0.0004008142
-0.00039271333
-0.00038457396
-0.00037639921
-0.00036819225
-0.00035995639
-0.000351695
-0.00034341154
-0.00033510958
-0.00032679276
-0.00031846479
-0.0003101295
-0.00030179076
-0.00029345254
-0.00028511887
-0.00027679385
-0.00026848166
-0.00026018652
-0.00025191273
-0.00024366462
-0.0002354466
-0.00022726309
-0.00021911859
-0.00021101759
-0.00020296465
-0.00019496434
-0.00018702126
-0.00017914
-0.00017132519
-0.00016358146
-0.00015591342
-0.00014832569
-0.0001408229
-0.00013340961
-0.00012609041
-0.00011886983
-0.00011175238
-0.00010474252
-9.7844659e-05
-9.1063161e-05
-8.4402302e-05
-7.7866284e-05
-7.1459211e-05
-6.5185043e-05
-5.9047626e-05
-5.3050674e-05
-4.7197717e-05
-4.1492143e-05
-3.59373e-05
-3.0536748e-05
-2.529487e-05
-2.021819e-05
-1.5317887e-05
-1.0614789e-05
-6.1550337e-06
-2.0454476e-06
1.6035464e-06
4.8794302e-06
5.2770785e-06
-0.0011581042
-0.0011621641
-0.0011630411
-0.0011592383
-0.001151528
-0.0011406796
-0.0011274654
-0.0011126346
-0.0010968526
-0.001080673
-0.0010645316
-0.0010487532
-0.0010335652
-0.0010191147
-0.0010054853
-0.00099271294
-0.00098079951
-0.0009697234
-0.00095944801
-0.0009499279
-0.00094111325
-0.0009329529
-0.00092539632
-0.00091839488
-0.00091190259
-0.00090587637
-0.0009002762
-0.00089506505
-0.00089020873
-0.00088567574
-0.00088143703
-0.00087746584
-0.00087373746
-0.00087022909
-0.00086691966
-0.0008637897
-0.00086082119
-0.00085799746
-0.00085530309
-0.00085272381
-0.00085024638
-0.00084785858
-0.00084554909
-0.0008433074
-0.0008411238
-0.00083898931
-0.00083689558
-0.00083483488
-0.00083280003
-0.00083078438
-0.00082878173
-0.00082678633
-0.00082479279
-0.00082279611
-0.00082079161
-0.00081877489
-0.00081674184
-0.0008146886
-0.00081261152
-0.00081050716
-0.00080837228
-0.00080620381
-0.00080399883
-0.00080175456
-0.00079946837
-0.00079713775
-0.00079476029
-0.00079233369
-0.00078985576
-0.00078732439
-0.00078473756
-0.00078209332
-0.00077938981
-0.00077662523
-0.00077379786
-0.00077090603
-0.00076794816
-0.00076492269
-0.00076182814
-0.00075866309
-0.00075542617
-0.00075211606
-0.00074873148
-0.00074527124
-0.00074173415
-0.0007381191
-0.00073442503
-0.00073065092
-0.00072679579
-0.00072285874
-0.00071883887
-0.00071473538
-0.00071054748
-0.00070627445
-0.00070191561
-0.00069747033
-0.00069293805
-0.00068831822
-0.00068361038
-0.0006788141
-0.00067392902
-0.00066895481
-0.00066389123
-0.00065873805
-0.00065349513
-0.00064816237
-0.00064273975
-0.00063722729
-0.00063162508
-0.00062593325
-0.00062015203
-0.00061428169
-0.00060832256
-0.00060227507
-0.00059613967
-0.00058991693
-0.00058360745
-0.00057721193
-0.00057073112
-0.00056416588
-0.00055751711
-0.00055078582
-0.00054397306
-0.00053708001
-0.0005301079
-0.00052305805
-0.00051593187
-0.00050873086
-0.0005014566
-0.00049411076
-0.0004866951
-0.00047921149
-0.00047166186
-0.00046404827
-0.00045637283
-0.00044863779
-0.00044084547
-0.00043299829
-0.00042509877
-0.00041714951
-0.00040915323
-0.00040111274
-0.00039303094
-0.00038491081
-0.00037675546
-0.00036856807
-0.00036035191
-0.00035211035
-0.00034384685
-0.00033556495
-0.00032726828
-0.00031896056
-0.00031064558
-0.00030232721
-0.0002940094
-0.00028569617
-0.00027739161
-0.00026909988
-0.00026082519
-0.00025257181
-0.00024434409
-0.00023614639
-0.00022798314
-0.0002198588
-0.00021177788
-0.00020374491
-0.00019576445
-0.00018784107
-0.00017997938
-0.00017218398
-0.00016445949
-0.00015681052
-0.00014924169
-0.0001417576
-0.00013436283
-0.00012706196
-0.00011985952
-0.00011276004
-0.00010576797
-9.8887773e-05
-9.2123834e-05
-8.5480485e-05
-7.8962012e-05
-7.2572636e-05
-6.6316519e-05
-6.0197752e-05
-5.4220373e-05
-4.8388434e-05
-4.2706089e-05
-3.717779e-05
-3.1808665e-05
-2.6605235e-05
-2.1576724e-05
-1.673717e-05
-1.2109155e-05
-7.7365029e-06
-3.7076714e-06
-5.17007e-08
3.5486246e-06
4.832736e-06
-0.0011567677
-0.0011614544
-0.0011622949
-0.001158166
-0.0011503739
-0.0011396926
-0.0011267827
-0.0011122978
-0.0010968426
-0.0010809407
-0.0010650183
-0.0010494018
-0.0010343251
-0.0010199437
-0.0010063496
-0.00099358643
-0.00098166258
-0.00097056181
-0.00096025179
-0.00095069044
-0.00094183046
-0.00093362255
-0.00092601754
-0.00091896776
-0.00091242781
-0.00090635504
-0.00090070966
-0.00089545477
-0.00089055623
-0.00088598256
-0.00088170469
-0.00087769583
-0.00087393123
-0.00087038806
-0.00086704524
-0.00086388326
-0.0008608841
-0.00085803106
-0.00085530872
-0.00085270278
-0.0008502
-0.00084778813
-0.00084545584
-0.00084319259
-0.00084098867
-0.00083883503
-0.00083672331
-0.00083464574
-0.00083259511
-0.00083056473
-0.00082854836
-0.00082654019
-0.00082453483
-0.00082252722
-0.00082051263
-0.00081848664
-0.00081644509
-0.00081438409
-0.00081229995
-0.00081018921
-0.0008080486
-0.000805875
-0.00080366548
-0.00080141724
-0.00079912761
-0.00079679407
-0.00079441418
-0.00079198564
-0.00078950622
-0.0007869738
-0.00078438635
-0.0007817419
-0.00077903859
-0.00077627459
-0.00077344819
-0.0007705577
-0.00076760151
-0.00076457808
-0.00076148591
-0.00075832358
-0.00075508971
-0.00075178296
-0.00074840207
-0.00074494581
-0.00074141302
-0.00073780258
-0.0007341134
-0.00073034448
-0.00072649483
-0.00072256353
-0.00071854971
-0.00071445255
-0.00071027125
-0.0007060051
-0.00070165341
-0.00069721555
-0.00069269095
-0.00068807908
-0.00068337946
-0.00067859167
-0.00067371534
-0.00066875014
-0.00066369582
-0.00065855217
-0.00065331904
-0.00064799634
-0.00064258402
-0.00063708212
-0.00063149071
-0.00062580996
-0.00062004005
-0.00061418128
-0.00060823398
-0.00060219856
-0.00059607548
-0.00058986531
-0.00058356865
-0.00057718618
-0.00057071868
-0.00056416699
-0.000557532
-0.00055081473
-0.00054401623
-0.00053713767
-0.00053018027
-0.00052314537
-0.00051603436
-0.00050884873
-0.00050159007
-0.00049426004
-0.00048686041
-0.00047939302
-0.00047185981
-0.00046426283
-0.00045660419
-0.00044888612
-0.00044111095
-0.00043328108
-0.00042539903
-0.00041746739
-0.00040948888
-0.00040146628
-0.0003934025
-0.00038530052
-0.00037716341
-0.00036899436
-0.00036079663
-0.00035257357
-0.00034432864
-0.00033606536
-0.00032778736
-0.00031949833
-0.00031120206
-0.00030290241
-0.00029460332
-0.0002863088
-0.00027802291
-0.00026974981
-0.0002614937
-0.00025325885
-0.00024504956
-0.00023687021
-0.00022872522
-0.00022061903
-0.00021255613
-0.00020454105
-0.00019657834
-0.00018867256
-0.00018082832
-0.0001730502
-0.00016534282
-0.00015771078
-0.0001501587
-0.00014269118
-0.0001353128
-0.00012802814
-0.00012084176
-0.00011375819
-0.00010678194
-9.9917469e-05
-9.3169205e-05
-8.6541539e-05
-8.0038832e-05
-7.3665418e-05
-6.7425613e-05
-6.1323738e-05
-5.536416e-05
-4.9551371e-05
-4.3890123e-05
-3.8385644e-05
-3.304402e-05
-2.7872826e-05
-2.2882144e-05
-1.808589e-05
-1.3503487e-05
-9.1684892e-06
-5.1489464e-06
-1.4263042e-06
2.5501728e-06
4.9321489e-06
-0.0011615234
-0.0011665085
-0.0011669241
-0.0011618399
-0.0011531344
-0.0011417107
-0.0011282259
-0.001113306
-0.0010975274
-0.0010813904
-0.0010653024
-0.0010495733
-0.001034424
-0.0010199988
-0.0010063809
-0.00099360711
-0.00098168052
-0.00097058128
-0.00096027455
-0.00095071661
-0.00094185917
-0.00093365239
-0.00092604688
-0.00091899491
-0.00091245115
-0.00090637308
-0.00090072106
-0.00089545835
-0.000890551
-0.00088596766
-0.00088167943
-0.00087765963
-0.00087388366
-0.00087032881
-0.0008669741
-0.00086380012
-0.00086078894
-0.00085792396
-0.00085518981
-0.00085257228
-0.00085005819
-0.00084763534
-0.00084529243
-0.000843019
-0.00084080532
-0.00083864239
-0.00083652188
-0.00083443601
-0.0008323776
-0.00083033995
-0.00082831683
-0.00082630244
-0.00082429135
-0.00082227852
-0.00082025919
-0.00081822896
-0.00081618363
-0.00081411931
-0.00081203231
-0.00080991914
-0.00080777651
-0.00080560131
-0.00080339059
-0.00080114153
-0.00079885146
-0.00079651783
-0.00079413821
-0.00079171028
-0.00078923181
-0.00078670066
-0.00078411479
-0.00078147223
-0.0007787711
-0.00077600959
-0.00077318595
-0.0007702985
-0.00076734563
-0.00076432578
-0.00076123746
-0.00075807923
-0.0007548497
-0.00075154755
-0.0007481715
-0.00074472032
-0.00074119283
-0.00073758793
-0.00073390452
-0.00073014158
-0.00072629814
-0.00072237328
-0.0007183661
-0.00071427579
-0.00071010156
-0.00070584268
-0.00070149847
-0.00069706829
-0.00069255158
-0.00068794779
-0.00068325645
-0.00067847713
-0.00067360946
-0.00066865313
-0.00066360786
-0.00065847345
-0.00065324974
-0.00064793664
-0.00064253412
-0.00063704219
-0.00063146094
-0.00062579052
-0.00062003112
-0.00061418304
-0.00060824659
-0.00060222219
-0.00059611032
-0.0005899115
-0.00058362636
-0.00057725559
-0.00057079993
-0.00056426024
-0.00055763741
-0.00055093243
-0.00054414639
-0.00053728042
-0.00053033575
-0.00052331371
-0.00051621569
-0.00050904319
-0.00050179777
-0.00049448111
-0.00048709495
-0.00047964114
-0.00047212161
-0.00046453841
-0.00045689364
-0.00044918953
-0.00044142839
-0.00043361262
-0.00042574473
-0.00041782732
-0.00040986309
-0.00040185481
-0.00039380538
-0.00038571778
-0.00037759507
-0.00036944043
-0.00036125712
-0.00035304848
-0.00034481794
-0.00033656905
-0.0003283054
-0.00032003069
-0.00031174869
-0.00030346326
-0.00029517832
-0.00028689788
-0.00027862601
-0.00027036683
-0.00026212455
-0.00025390343
-0.00024570777
-0.00023754194
-0.00022941033
-0.00022131741
-0.00021326765
-0.00020526557
-0.00019731572
-0.00018942266
-0.00018159098
-0.00017382528
-0.00016613016
-0.00015851024
-0.00015097013
-0.00014351444
-0.00013614776
-0.00012887468
-0.00012169976
-0.00011462753
-0.00010766251
-0.0001008092
-9.4072084e-05
-8.7455603e-05
-8.0964193e-05
-7.460228e-05
-6.83743e-05
-6.2284728e-05
-5.6338123e-05
-5.0539201e-05
-4.4892936e-05
-3.940473e-05
-3.4080639e-05
-2.8927716e-05
-2.3954475e-05
-1.9171199e-05
-1.4589647e-05
-1.0228127e-05
-6.1300463e-06
-2.2416116e-06
2.1098948e-06
5.2854574e-06
-0.0011745413
-0.0011785554
-0.0011772445
-0.0011699968
-0.0011592685
-0.0011461197
-0.0011312272
-0.0011151957
-0.0010985667
-0.0010818011
-0.0010652657
-0.0010492322
-0.001033888
-0.0010193495
-0.0010056768
-0.00099288873
-0.00098097464
-0.0009699045
-0.00095963618
-0.00095012088
-0.00094130694
-0.00093314234
-0.00092557637
-0.00091856059
-0.00091204937
-0.00090600015
-0.00090037341
-0.00089513262
-0.0008902441
-0.00088567678
-0.00088140203
-0.00087739347
-0.00087362674
-0.00087007938
-0.00086673061
-0.00086356125
-0.00086055354
-0.00085769104
-0.00085495856
-0.000852342
-0.00084982831
-0.00084740542
-0.00084506211
-0.00084278801
-0.00084057347
-0.00083840958
-0.00083628803
-0.00083420113
-0.00083214173
-0.00083010317
-0.00082807925
-0.0008260642
-0.00082405262
-0.00082203948
-0.00082002006
-0.00081798992
-0.00081594493
-0.00081388117
-0.00081179495
-0.00080968281
-0.00080754145
-0.00080536776
-0.00080315878
-0.00080091171
-0.00079862387
-0.0007962927
-0.00079391578
-0.00079149077
-0.00078901545
-0.00078648768
-0.0007839054
-0.00078126667
-0.00077856957
-0.0007758123
-0.00077299311
-0.00077011032
-0.0007671623
-0.00076414751
-0.00076106444
-0.00075791164
-0.00075468774
-0.00075139141
-0.00074802135
-0.00074457635
-0.00074105522
-0.00073745684
-0.00073378013
-0.00073002406
-0.00072618766
-0.00072226999
-0.00071827018
-0.00071418738
-0.00071002083
-0.00070576978
-0.00070143355
-0.00069701152
-0.00069250309
-0.00068790773
-0.00068322497
-0.00067845437
-0.00067359557
-0.00066864823
-0.0006636121
-0.00065848696
-0.00065327266
-0.0006479691
-0.00064257625
-0.00063709411
-0.00063152278
-0.00062586239
-0.00062011316
-0.00061427535
-0.00060834929
-0.0006023354
-0.00059623413
-0.00059004604
-0.00058377172
-0.00057741187
-0.00057096723
-0.00056443865
-0.00055782702
-0.00055113334
-0.00054435866
-0.00053750413
-0.00053057098
-0.00052356052
-0.00051647416
-0.00050931336
-0.00050207971
-0.00049477486
-0.00048740056
-0.00047995865
-0.00047245106
-0.00046487981
-0.00045724702
-0.00044955491
-0.00044180577
-0.00043400202
-0.00042614614
-0.00041824073
-0.00041028847
-0.00040229216
-0.00039425466
-0.00038617895
-0.0003780681
-0.00036992527
-0.00036175371
-0.00035355677
-0.00034533786
-0.00033710052
-0.00032884835
-0.00032058503
-0.00031231434
-0.00030404011
-0.00029576628
-0.00028749685
-0.00027923586
-0.00027098746
-0.00026275585
-0.00025454526
-0.00024636001
-0.00023820446
-0.00023008301
-0.0002220001
-0.00021396022
-0.00020596789
-0.00019802764
-0.00019014405
-0.00018232171
-0.00017456522
-0.00016687917
-0.0001592682
-0.00015173692
-0.00014428993
-0.00013693184
-0.00012966723
-0.00012250069
-0.00011543678
-0.00010848004
-0.00010163499
-9.4906138e-05
-8.8297971e-05
-8.1814973e-05
-7.5461629e-05
-6.924244e-05
-6.3161951e-05
-5.7224774e-05
-5.1435635e-05
-4.5799417e-05
-4.0321218e-05
-3.5006379e-05
-2.9860494e-05
-2.488931e-05
-2.0098195e-05
-1.5490532e-05
-1.1070414e-05
-6.8602558e-06
-2.7861838e-06
1.8735127e-06
5.6775353e-06
-0.0011986098
-0.0011990768
-0.0011935932
-0.0011822298
-0.0011679775
-0.0011519875
-0.001134885
-0.0011171819
-0.0010993251
-0.0010816869
-0.0010645537
-0.001048132
-0.0010325557
-0.001017898
-0.0010041855
-0.0009914115
-0.00097954649
-0.00096854659
-0.00095835988
-0.00094893077
-0.00094020305
-0.00093212179
-0.00092463452
-0.00091769186
-0.00091124781
-0.00090525973
-0.00089968833
-0.0008944974
-0.00088965364
-0.00088512643
-0.00088088754
-0.00087691101
-0.00087317286
-0.00086965099
-0.00086632495
-0.00086317585
-0.0008601862
-0.00085733982
-0.00085462173
-0.00085201804
-0.00084951588
-0.00084710332
-0.00084476933
-0.00084250364
-0.00084029675
-0.00083813984
-0.00083602471
-0.00083394377
-0.00083188992
-0.00082985659
-0.00082783763
-0.00082582734
-0.00082382036
-0.0008218117
-0.00081979668
-0.00081777091
-0.00081573025
-0.00081367083
-0.00081158899
-0.00080948127
-0.00080734439
-0.00080517525
-0.00080297091
-0.00080072857
-0.00079844557
-0.00079611935
-0.00079374749
-0.00079132766
-0.00078885764
-0.00078633529
-0.00078375857
-0.00078112552
-0.00077843423
-0.0007756829
-0.00077286978
-0.00076999318
-0.00076705149
-0.00076404315
-0.00076096666
-0.00075782058
-0.00075460351
-0.00075131413
-0.00074795115
-0.00074451334
-0.00074099953
-0.00073740858
-0.00073373943
-0.00072999102
-0.0007261624
-0.00072225262
-0.0007182608
-0.00071418611
-0.00071002777
-0.00070578503
-0.00070145722
-0.0006970437
-0.00069254388
-0.00068795724
-0.00068328328
-0.00067852159
-0.00067367177
-0.00066873352
-0.00066370655
-0.00065859067
-0.0006533857
-0.00064809156
-0.0006427082
-0.00063723563
-0.00063167395
-0.00062602328
-0.00062028383
-0.00061445587
-0.00060853973
-0.00060253581
-0.00059644458
-0.00059026657
-0.00058400239
-0.00057765272
-0.00057121832
-0.0005647
-0.00055809867
-0.00055141531
-0.00054465098
-0.00053780683
-0.00053088408
-0.00052388404
-0.0005168081
-0.00050965773
-0.0005024345
-0.00049514007
-0.00048777618
-0.00048034466
-0.00047284744
-0.00046528653
-0.00045766405
-0.00044998221
-0.0004422433
-0.00043444973
-0.00042660397
-0.00041870863
-0.00041076637
-0.00040277998
-0.00039475234
-0.00038668641
-0.00037858525
-0.00037045201
-0.00036228995
-0.00035410241
-0.0003458928
-0.00033766465
-0.00032942156
-0.00032116721
-0.00031290537
-0.00030463987
-0.00029637465
-0.00028811369
-0.00027986107
-0.0002716209
-0.00026339738
-0.00025519476
-0.00024701736
-0.00023886952
-0.00023075565
-0.0002226802
-0.00021464765
-0.00020666252
-0.00019872935
-0.00019085273
-0.00018303724
-0.00017528748
-0.00016760807
-0.00016000362
-0.00015247877
-0.00014503812
-0.00013768629
-0.00013042788
-0.00012326748
-0.00011620966
-0.00010925898
-0.00010241998
-9.5697178e-05
-8.9095082e-05
-8.2618193e-05
-7.6271006e-05
-7.0058019e-05
-6.3983742e-05
-5.8052695e-05
-5.2269412e-05
-4.6638402e-05
-4.1164086e-05
-3.585063e-05
-3.0701658e-05
-2.5719715e-05
-2.0905191e-05
-1.6254066e-05
-1.1759241e-05
-7.4279362e-06
-3.1791436e-06
1.7125012e-06
6.0632562e-06
-0.0012378485
-0.0012296417
-0.0012157392
-0.0011973664
-0.0011777131
-0.0011577505
-0.0011378136
-0.0011181316
-0.0010989279
-0.0010803988
-0.001062703
-0.0010459538
-0.0010302156
-0.0010155106
-0.0010018283
-0.00098913452
-0.00097738041
-0.00096650827
-0.00095645655
-0.00094716314
-0.00093856756
-0.00093061219
-0.00092324306
-0.00091641005
-0.00091006697
-0.00090417135
-0.00089868427
-0.00089357005
-0.00088879594
-0.00088433191
-0.00088015031
-0.00087622571
-0.00087253467
-0.00086905553
-0.00086576829
-0.00086265443
-0.00085969684
-0.00085687965
-0.00085418817
-0.00085160877
-0.00084912882
-0.00084673662
-0.0008444213
-0.0008421728
-0.00083998178
-0.00083783956
-0.00083573807
-0.00083366985
-0.00083162791
-0.00082960577
-0.00082759739
-0.00082559713
-0.00082359971
-0.00082160021
-0.00081959399
-0.00081757672
-0.00081554432
-0.00081349294
-0.00081141897
-0.00080931897
-0.00080718969
-0.00080502807
-0.00080283118
-0.00080059623
-0.00079832059
-0.00079600171
-0.00079363718
-0.00079122469
-0.00078876202
-0.00078624705
-0.00078367773
-0.00078105211
-0.0007783683
-0.00077562449
-0.00077281893
-0.00076994995
-0.00076701593
-0.00076401531
-0.0007609466
-0.00075780835
-0.00075459918
-0.00075131775
-0.00074796278
-0.00074453304
-0.00074102736
-0.0007374446
-0.00073378369
-0.00073004359
-0.00072622332
-0.00072232196
-0.00071833861
-0.00071427244
-0.00071012268
-0.00070588857
-0.00070156944
-0.00069716465
-0.00069267362
-0.0006880958
-0.00068343071
-0.00067867793
-0.00067383708
-0.00066890782
-0.0006638899
-0.00065878309
-0.00065358724
-0.00064830224
-0.00064292805
-0.0006374647
-0.00063191224
-0.00062627083
-0.00062054066
-0.000614722
-0.00060881518
-0.00060282059
-0.0005967387
-0.00059057004
-0.00058431521
-0.00057797489
-0.00057154983
-0.00056504084
-0.00055844883
-0.00055177478
-0.00054501974
-0.00053818486
-0.00053127135
-0.00052428051
-0.00051721374
-0.0005100725
-0.00050285835
-0.00049557296
-0.00048821804
-0.00048079543
-0.00047330706
-0.00046575494
-0.00045814117
-0.00045046795
-0.00044273758
-0.00043495246
-0.00042711507
-0.00041922798
-0.00041129389
-0.00040331556
-0.00039529587
-0.00038723778
-0.00037914434
-0.00037101871
-0.00036286414
-0.00035468396
-0.00034648159
-0.00033826055
-0.00033002445
-0.00032177695
-0.00031352184
-0.00030526294
-0.0002970042
-0.00028874958
-0.00028050317
-0.00027226909
-0.00026405154
-0.00025585476
-0.00024768307
-0.00023954083
-0.00023143245
-0.00022336238
-0.00021533511
-0.00020735516
-0.00019942708
-0.00019155545
-0.00018374486
-0.00017599993
-0.00016832526
-0.0001607255
-0.00015320526
-0.00014576917
-0.00013842186
-0.00013116791
-0.00012401195
-0.00011695853
-0.00011001222
-0.00010317755
-9.6459059e-05
-8.9861227e-05
-8.3388532e-05
-7.704542e-05
-7.0836308e-05
-6.4765559e-05
-5.8837463e-05
-5.3056168e-05
-4.7425583e-05
-4.1949183e-05
-3.6629693e-05
-3.1468575e-05
-2.6465225e-05
-2.1615635e-05
-1.6910002e-05
-1.2333343e-05
-7.8828466e-06
-3.4787436e-06
1.5743662e-06
6.4274639e-06
-0.0012973907
-0.0012710126
-0.0012418122
-0.0012127573
-0.0011858499
-0.001161185
-0.0011383107
-0.0011168225
-0.001096525
-0.0010773637
-0.0010593421
-0.0010424683
-0.0010267363
-0.0010121216
-0.00099858188
-0.00098606142
-0.00097449632
-0.00096381869
-0.00095396006
-0.00094485374
-0.00093643633
-0.00092864854
-0.00092143555
-0.00091474704
-0.000908537
-0.00090276343
-0.00089738803
-0.00089237583
-0.00088769483
-0.00088331573
-0.00087921161
-0.0008753577
-0.00087173119
-0.000868311
-0.00086507766
-0.00086201314
-0.00085910072
-0.00085632496
-0.0008536715
-0.00085112704
-0.00084867926
-0.00084631671
-0.00084402878
-0.00084180564
-0.00083963813
-0.00083751776
-0.00083543665
-0.00083338746
-0.00083136336
-0.00082935798
-0.00082736541
-0.0008253801
-0.00082339687
-0.00082141088
-0.00081941757
-0.00081741267
-0.00081539217
-0.00081335228
-0.00081128942
-0.00080920021
-0.00080708144
-0.00080493007
-0.00080274321
-0.0008005181
-0.00079825213
-0.00079594277
-0.00079358764
-0.00079118444
-0.00078873097
-0.00078622511
-0.00078366484
-0.0007810482
-0.00077837333
-0.00077563841
-0.00077284171
-0.00076998156
-0.00076705634
-0.00076406451
-0.00076100457
-0.00075787508
-0.00075467465
-0.00075140196
-0.00074805573
-0.00074463473
-0.00074113778
-0.00073756375
-0.00073391156
-0.0007301802
-0.00072636866
-0.00072247603
-0.00071850142
-0.000714444
-0.00071030297
-0.00070607761
-0.00070176723
-0.00069737118
-0.00069288889
-0.00068831982
-0.00068366348
-0.00067891945
-0.00067408734
-0.00066916682
-0.00066415763
-0.00065905955
-0.00065387241
-0.00064859613
-0.00064323064
-0.00063777597
-0.00063223219
-0.00062659943
-0.0006208779
-0.00061506785
-0.00060916962
-0.00060318359
-0.00059711024
-0.00059095007
-0.00058470371
-0.0005783718
-0.00057195511
-0.00056545445
-0.00055887073
-0.00055220491
-0.00054545805
-0.00053863128
-0.00053172582
-0.00052474297
-0.0005176841
-0.0005105507
-0.00050334431
-0.00049606658
-0.00048871924
-0.00048130413
-0.00047382315
-0.00046627831
-0.00045867173
-0.0004510056
-0.00044328221
-0.00043550394
-0.00042767329
-0.00041979283
-0.00041186524
-0.00040389329
-0.00039587985
-0.00038782788
-0.00037974044
-0.00037162069
-0.00036347186
-0.00035529729
-0.0003471004
-0.00033888472
-0.00033065383
-0.00032241143
-0.00031416128
-0.00030590723
-0.0002976532
-0.00028940319
-0.00028116127
-0.00027293157
-0.0002647183
-0.00025652571
-0.00024835812
-0.00024021989
-0.00023211543
-0.0002240492
-0.0002160257
-0.00020804945
-0.00020012501
-0.00019225696
-0.0001844499
-0.00017670845
-0.00016903723
-0.00016144088
-0.00015392403
-0.0001464913
-0.00013914731
-0.00013189668
-0.00012474399
-0.00011769382
-0.00011075071
-0.00010391918
-9.7203717e-05
-9.0608773e-05
-8.4138744e-05
-7.7797967e-05
-7.1590689e-05
-6.5521028e-05
-5.9592909e-05
-5.3809949e-05
-4.8175287e-05
-4.26913e-05
-3.735918e-05
-3.2178286e-05
-2.7145228e-05
-2.2252502e-05
-1.7486287e-05
-1.2826701e-05
-8.2649133e-06
-3.7265165e-06
1.4264531e-06
6.7580848e-06
-0.0013961202
-0.0013259333
-0.0012671779
-0.0012237881
-0.0011889402
-0.0011599128
-0.0011348667
-0.0011123441
-0.0010916009
-0.0010723259
-0.0010543754
-0.0010376723
-0.0010221646
-0.0010078019
-0.00099452651
-0.0009822732
-0.00097097174
-0.00096055
-0.00095093658
-0.00094206288
-0.00093386431
-0.00092628101
-0.00091925805
-0.00091274533
-0.00090669733
-0.00090107275
-0.00089583406
-0.00089094714
-0.00088638087
-0.00088210679
-0.0008780988
-0.00087433291
-0.000870787
-0.00086744067
-0.00086427507
-0.00086127273
-0.00085841746
-0.00085569424
-0.00085308917
-0.00085058932
-0.00084818272
-0.00084585824
-0.00084360557
-0.00084141512
-0.00083927799
-0.00083718591
-0.00083513119
-0.00083310667
-0.0008311057
-0.00082912206
-0.00082714995
-0.00082518397
-0.00082321904
-0.00082125042
-0.00081927366
-0.00081728456
-0.00081527919
-0.00081325382
-0.00081120493
-0.00080912919
-0.00080702346
-0.00080488473
-0.00080271014
-0.00080049699
-0.00079824267
-0.00079594471
-0.00079360074
-0.00079120847
-0.00078876574
-0.00078627044
-0.00078372056
-0.00078111417
-0.0007784494
-0.00077572446
-0.00077293763
-0.00077008724
-0.00076717169
-0.00076418943
-0.00076113897
-0.00075801888
-0.00075482778
-0.00075156435
-0.00074822732
-0.00074481544
-0.00074132756
-0.00073776254
-0.00073411931
-0.00073039685
-0.00072659417
-0.00072271034
-0.00071874449
-0.00071469577
-0.00071056341
-0.00070634667
-0.00070204486
-0.00069765734
-0.00069318354
-0.00068862291
-0.00068397497
-0.00067923929
-0.0006744155
-0.00066950325
-0.00066450228
-0.00065941238
-0.00065423339
-0.00064896519
-0.00064360774
-0.00063816106
-0.00063262522
-0.00062700035
-0.00062128665
-0.00061548439
-0.00060959388
-0.00060361551
-0.00059754975
-0.00059139711
-0.0005851582
-0.00057883368
-0.00057242431
-0.00056593091
-0.00055935435
-0.00055269562
-0.00054595577
-0.00053913592
-0.00053223728
-0.00052526117
-0.00051820894
-0.00051108207
-0.00050388212
-0.00049661072
-0.0004892696
-0.00048186059
-0.00047438561
-0.00046684666
-0.00045924583
-0.00045158534
-0.00044386746
-0.00043609459
-0.00042826921
-0.00042039389
-0.00041247131
-0.00040450424
-0.00039649556
-0.00038844822
-0.00038036527
-0.00037224989
-0.0003641053
-0.00035593485
-0.00034774197
-0.00033953018
-0.00033130307
-0.00032306435
-0.00031481777
-0.00030656721
-0.00029831657
-0.00029006986
-0.00028183116
-0.0002736046
-0.0002653944
-0.00025720481
-0.00024904016
-0.00024090482
-0.00023280321
-0.00022473979
-0.00021671906
-0.00020874556
-0.00020082385
-0.00019295851
-0.00018515416
-0.00017741542
-0.0001697469
-0.00016215325
-0.0001546391
-0.00014720907
-0.00013986778
-0.00013261983
-0.00012546978
-0.0001184222
-0.0001114816
-0.00010465245
-9.7939175e-05
-9.1346134e-05
-8.4877602e-05
-7.8537738e-05
-7.2330547e-05
-6.6259811e-05
-6.0328987e-05
-5.4541056e-05
-4.8898294e-05
-4.3401936e-05
-3.8051684e-05
-3.2845027e-05
-2.7776325e-05
-2.2835563e-05
-1.8006522e-05
-1.3266825e-05
-8.6046282e-06
-3.9517818e-06
1.2487595e-06
7.0452932e-06
-0.0016423899
-0.0014136943
-0.0012871645
-0.0012267002
-0.0011849592
-0.0011529213
-0.0011272269
-0.0011049129
-0.0010845975
-0.0010657899
-0.001048289
-0.0010319998
-0.0010168712
-0.0010028603
-0.00098991605
-0.00097797751
-0.00096697665
-0.00095684206
-0.00094750228
-0.00093888823
-0.0009309348
-0.00092358176
-0.000916774
-0.00091046155
-0.00090459922
-0.00089914623
-0.00089406574
-0.00088932438
-0.00088489187
-0.00088074059
-0.00087684529
-0.00087318282
-0.00086973184
-0.00086647267
-0.00086338711
-0.00086045832
-0.00085767072
-0.00085500981
-0.00085246216
-0.00085001532
-0.00084765769
-0.00084537853
-0.00084316785
-0.00084101637
-0.00083891548
-0.00083685715
-0.00083483392
-0.00083283886
-0.00083086548
-0.00082890775
-0.00082696004
-0.00082501707
-0.0008230739
-0.00082112591
-0.00081916872
-0.00081719827
-0.00081521067
-0.00081320231
-0.00081116973
-0.00080910966
-0.00080701902
-0.00080489484
-0.00080273433
-0.0008005348
-0.0007982937
-0.00079600859
-0.00079367711
-0.00079129703
-0.00078886619
-0.00078638251
-0.000783844
-0.00078124875
-0.0007785949
-0.00077588068
-0.00077310437
-0.00077026432
-0.00076735895
-0.0007643867
-0.00076134611
-0.00075823574
-0.00075505424
-0.00075180026
-0.00074847256
-0.0007450699
-0.00074159111
-0.00073803509
-0.00073440075
-0.00073068706
-0.00072689306
-0.00072301782
-0.00071906046
-0.00071502014
-0.00071089609
-0.00070668758
-0.00070239391
-0.00069801445
-0.00069354862
-0.00068899588
-0.00068435576
-0.00067962782
-0.00067481167
-0.000669907
-0.00066491354
-0.00065983106
-0.00065465941
-0.00064939847
-0.00064404822
-0.00063860865
-0.00063307983
-0.00062746191
-0.00062175509
-0.0006159596
-0.00061007579
-0.00060410403
-0.00059804478
-0.00059189858
-0.00058566602
-0.00057934777
-0.00057294456
-0.00056645722
-0.00055988664
-0.00055323379
-0.0005464997
-0.00053968552
-0.00053279245
-0.00052582178
-0.0005187749
-0.00051165326
-0.00050445842
-0.00049719202
-0.00048985579
-0.00048245154
-0.0004749812
-0.00046744677
-0.00045985034
-0.00045219412
-0.00044448039
-0.00043671155
-0.00042889008
-0.00042101855
-0.00041309964
-0.00040513613
-0.00039713089
-0.00038908688
-0.00038100717
-0.00037289492
-0.00036475337
-0.00035658586
-0.00034839583
-0.00034018679
-0.00033196237
-0.00032372625
-0.00031548221
-0.00030723411
-0.00029898589
-0.00029074155
-0.00028250518
-0.00027428092
-0.00026607298
-0.00025788565
-0.00024972324
-0.00024159014
-0.00023349077
-0.00022542961
-0.00021741116