/*--------------------------------*- C++ -*----------------------------------*\
| =========                 |                                                 |
| \\      /  F ield         | OpenFOAM: The Open Source CFD Toolbox           |
|  \\    /   O peration     | Version:  2406                                  |
|   \\  /    A nd           | Website:  www.openfoam.com                      |
|    \\/     M anipulation  |                                                 |
\*---------------------------------------------------------------------------*/
FoamFile
{
    version     2.0;
    format      ascii;
    arch        "LSB;label=32;scalar=64";
    class       surfaceScalarField;
    location    "1255";
    object      phi;
}
// * * * * * * * * * * * * * * * * * * * * * * * * * * * * * * * * * * * * * //

dimensions      [0 3 -1 0 0 0 0];

oriented        oriented;

internalField   nonuniform List<scalar> 
20149
(
-2.2485775e-14
2.2485775e-14
-9.9489509e-14
7.7003734e-14
-2.0468944e-13
1.0519993e-13
-3.1131256e-13
1.0662313e-13
-4.0359429e-13
9.2281724e-14
-4.7462358e-13
7.1029293e-14
-5.2317421e-13
4.8550628e-14
-5.5114056e-13
2.7966346e-14
-5.6181384e-13
1.0673283e-14
-5.5885392e-13
-2.9599142e-15
-5.4573183e-13
-1.3122094e-14
-5.2546876e-13
-2.0263066e-14
-5.0054795e-13
-2.4920817e-14
-4.7292117e-13
-2.7626774e-14
-4.4406379e-13
-2.8857385e-14
-4.1504951e-13
-2.9014284e-14
-3.8662848e-13
-2.8421023e-14
-3.5929969e-13
-2.7328797e-14
-3.3337334e-13
-2.5926345e-14
-3.0902223e-13
-2.4351108e-14
-2.8632226e-13
-2.2699976e-14
-2.6528345e-13
-2.1038805e-14
-2.4587307e-13
-1.9410383e-14
-2.2803224e-13
-1.7840835e-14
-2.1168764e-13
-1.6344598e-14
-1.9675945e-13
-1.4928186e-14
-1.8316648e-13
-1.3592968e-14
-1.7082934e-13
-1.2337148e-14
-1.5967218e-13
-1.1157154e-14
-1.4962361e-13
-1.0048571e-14
-1.4061687e-13
-9.0067366e-15
-1.3258977e-13
-8.0271049e-15
-1.2548433e-13
-7.1054442e-15
-1.192464e-13
-6.2379225e-15
-1.1382528e-13
-5.4211249e-15
-1.0917325e-13
-4.6520263e-15
-1.0524531e-13
-3.9279432e-15
-1.0199883e-13
-3.2464771e-15
-9.9393376e-14
-2.6054568e-15
-9.7390488e-14
-2.0028883e-15
-9.5953578e-14
-1.4369102e-15
-9.5047819e-14
-9.0575934e-16
-9.4640073e-14
-4.0774592e-16
-9.4698836e-14
5.8763069e-17
-9.5194198e-14
4.9536156e-16
-9.6097791e-14
9.0359337e-16
-9.7382759e-14
1.2849673e-15
-9.9023713e-14
1.6409538e-15
-1.0099669e-13
1.9729813e-15
-1.0327913e-13
2.2824315e-15
-1.0584976e-13
2.5706349e-15
-1.0868863e-13
2.8388663e-15
-1.1177697e-13
3.0883412e-15
-1.1509718e-13
3.3202131e-15
-1.1863275e-13
3.5355713e-15
-1.2236819e-13
3.7354398e-15
-1.2628897e-13
3.9207775e-15
-1.3038145e-13
4.0924787e-15
-1.3463282e-13
4.2513742e-15
-1.3903106e-13
4.3982337e-15
-1.4356483e-13
4.5337681e-15
-1.4822346e-13
4.658632e-15
-1.5299689e-13
4.7734271e-15
-1.5787559e-13
4.878705e-15
-1.6285056e-13
4.9749709e-15
-1.6791325e-13
5.0626863e-15
-1.7305552e-13
5.1422729e-15
-1.7826964e-13
5.2141148e-15
-1.835482e-13
5.2785622e-15
-1.8888413e-13
5.3359338e-15
-1.9427065e-13
5.3865197e-15
-1.9970124e-13
5.4305836e-15
-2.051696e-13
5.4683653e-15
-2.1066969e-13
5.5000823e-15
-2.1619562e-13
5.5259325e-15
-2.2174171e-13
5.5460953e-15
-2.2730245e-13
5.5607336e-15
-2.3287244e-13
5.5699948e-15
-2.3844645e-13
5.5740126e-15
-2.4401936e-13
5.5729079e-15
-2.4958615e-13
5.5667902e-15
-2.5514191e-13
5.5557583e-15
-2.6068181e-13
5.5399015e-15
-2.6620112e-13
5.5192998e-15
-2.7169514e-13
5.4940254e-15
-2.7715928e-13
5.4641428e-15
-2.8258899e-13
5.4297097e-15
-2.8797977e-13
5.3907772e-15
-2.9332716e-13
5.3473907e-15
-2.9862675e-13
5.2995898e-15
-3.0387416e-13
5.2474094e-15
-3.0906504e-13
5.1908792e-15
-3.1419507e-13
5.1300252e-15
-3.1925994e-13
5.0648684e-15
-3.2425537e-13
4.9954267e-15
-3.2917708e-13
4.9217135e-15
-3.3402082e-13
4.8437398e-15
-3.3878234e-13
4.7615124e-15
-3.4345737e-13
4.6750359e-15
-3.4804169e-13
4.5843114e-15
-3.5253102e-13
4.4893384e-15
-3.5692114e-13
4.3901127e-15
-3.6120777e-13
4.2866293e-15
-3.6538665e-13
4.1788798e-15
-3.694535e-13
4.0668551e-15
-3.7340405e-13
3.9505434e-15
-3.7723398e-13
3.8299331e-15
-3.8093899e-13
3.7050096e-15
-3.8451475e-13
3.5757592e-15
-3.8795692e-13
3.4421658e-15
-3.9126114e-13
3.304214e-15
-3.9442302e-13
3.1618863e-15
-3.9743819e-13
3.0151668e-15
-4.0030223e-13
2.864038e-15
-4.0301071e-13
2.7084842e-15
-4.055592e-13
2.5484889e-15
-4.0794324e-13
2.3840377e-15
-4.1015836e-13
2.2151164e-15
-4.1220007e-13
2.0417137e-15
-4.1406389e-13
1.8638181e-15
-4.1574532e-13
1.6814231e-15
-4.1723984e-13
1.4945214e-15
-4.1854295e-13
1.3031115e-15
-4.1965015e-13
1.1071916e-15
-4.2055691e-13
9.0676643e-16
-4.2125876e-13
7.0184138e-16
-4.2175119e-13
4.9242925e-16
-4.2202973e-13
2.7854498e-16
-4.2208994e-13
6.0209396e-17
-4.2192739e-13
-1.6255443e-16
-4.2153768e-13
-3.8971362e-16
-4.2091644e-13
-6.2123363e-16
-4.2005938e-13
-8.5707e-16
-4.189622e-13
-1.0971763e-15
-4.1762071e-13
-1.3414952e-15
-4.1603074e-13
-1.5899666e-15
-4.1418822e-13
-1.84252e-15
-4.1208914e-13
-2.0990803e-15
-4.0972958e-13
-2.3595619e-15
-4.0710571e-13
-2.6238743e-15
-4.042138e-13
-2.8919154e-15
-4.0105022e-13
-3.163579e-15
-3.9761148e-13
-3.4387468e-15
-3.9389418e-13
-3.7172963e-15
-3.8989509e-13
-3.999093e-15
-3.856111e-13
-4.2839978e-15
-3.8103924e-13
-4.571859e-15
-3.7617672e-13
-4.8625213e-15
-3.710209e-13
-5.155817e-15
-3.6556933e-13
-5.4515749e-15
-3.5981972e-13
-5.7496119e-15
-3.5376998e-13
-6.0497426e-15
-3.4741821e-13
-6.3517683e-15
-3.4076273e-13
-6.6554913e-15
-3.3380203e-13
-6.9606994e-15
-3.2653485e-13
-7.2671841e-15
-3.1896012e-13
-7.5747221e-15
-3.1107703e-13
-7.8830959e-15
-3.0288495e-13
-8.1920741e-15
-2.9438352e-13
-8.5014326e-15
-2.8557259e-13
-8.8109353e-15
-2.7645223e-13
-9.120354e-15
-2.6702278e-13
-9.4294517e-15
-2.5728478e-13
-9.738e-15
-2.4723901e-13
-1.0045766e-14
-2.3688648e-13
-1.0352528e-14
-2.2622842e-13
-1.0658059e-14
-2.1526628e-13
-1.0962147e-14
-2.040017e-13
-1.1264578e-14
-1.9243654e-13
-1.1565161e-14
-1.8057284e-13
-1.1863707e-14
-1.684128e-13
-1.2160047e-14
-1.5595878e-13
-1.2454018e-14
-1.4321329e-13
-1.2745494e-14
-1.3017892e-13
-1.3034368e-14
-1.1685836e-13
-1.3320564e-14
-1.0325433e-13
-1.3604029e-14
-8.9369536e-14
-1.3884797e-14
-7.5206577e-14
-1.4162956e-14
-6.0767925e-14
-1.4438652e-14
-4.6055752e-14
-1.471217e-14
-3.1071737e-14
-1.4984017e-14
-1.5816832e-14
-1.5254905e-14
-2.9091237e-16
-1.5525922e-14
1.5508039e-14
-1.5798949e-14
3.1584788e-14
-1.6076749e-14
4.7948326e-14
-1.6363536e-14
6.461456e-14
-1.6666235e-14
8.1610486e-14
-1.6995926e-14
9.8981057e-14
-1.7370573e-14
1.1680058e-13
-1.7819521e-14
1.3519161e-13
-1.8391026e-14
1.543564e-13
-1.9164784e-14
1.746292e-13
-2.0272801e-14
1.9656366e-13
-2.1934462e-14
2.2107446e-13
-2.45108e-14
2.4962936e-13
-2.8554912e-14
2.8449804e-13
-3.4868683e-14
3.2978642e-13
-4.5288387e-14
-6.1640942e-14
-8.6082409e-14
1.0856818e-13
-2.8163251e-13
2.7255384e-13
-5.2423394e-13
3.4780136e-13
-7.630713e-13
3.4546049e-13
-9.6734534e-13
2.9655576e-13
-1.123438e-12
2.2712196e-13
-1.2292345e-12
1.5434716e-13
-1.2891326e-12
8.78644e-14
-1.3105102e-12
3.2050905e-14
-1.301531e-12
-1.1939148e-14
-1.269926e-12
-4.4727026e-14
-1.2224177e-12
-6.7771424e-14
-1.1645262e-12
-8.2812299e-14
-1.1005905e-12
-9.1562447e-14
-1.0338948e-12
-9.5553144e-14
-9.6683639e-13
-9.6072662e-14
-9.0109947e-13
-9.4157947e-14
-8.3781388e-13
-9.0614386e-14
-7.7769207e-13
-8.6048159e-14
-7.2114115e-13
-8.090203e-14
-6.6835159e-13
-7.5489533e-14
-6.1936529e-13
-7.0025104e-14
-5.7412638e-13
-6.4649289e-14
-5.325182e-13
-5.9449025e-14
-4.9438933e-13
-5.4473459e-14
-4.5957156e-13
-4.974596e-14
-4.2789152e-13
-4.5273007e-14
-3.9917807e-13
-4.1050602e-14
-3.7326646e-13
-3.7068762e-14
-3.5000047e-13
-3.3314567e-14
-3.2923307e-13
-2.9774133e-14
-3.1082635e-13
-2.643382e-14
-2.9465091e-13
-2.3280893e-14
-2.80585e-13
-2.0303826e-14
-2.6851376e-13
-1.7492368e-14
-2.5832832e-13
-1.4837469e-14
-2.4992514e-13
-1.2331121e-14
-2.4320544e-13
-9.9661777e-15
-2.3807473e-13
-7.7361708e-15
-2.3444247e-13
-5.6351421e-15
-2.3222188e-13
-3.6575e-15
-2.3132973e-13
-1.7979076e-15
-2.3168628e-13
-5.1205247e-17
-2.3321517e-13
1.5876623e-15
-2.3584346e-13
3.1236449e-15
-2.3950148e-13
4.5616178e-15
-2.4412291e-13
5.9063899e-15
-2.4964464e-13
7.162692e-15
-2.5600682e-13
8.33516e-15
-2.6315271e-13
9.428315e-15
-2.7102862e-13
1.0446544e-14
-2.7958383e-13
1.1394078e-14
-2.8877047e-13
1.227498e-14
-2.9854338e-13
1.3093126e-14
-3.0886e-13
1.3852196e-14
-3.1968023e-13
1.455567e-14
-3.3096628e-13
1.5206819e-14
-3.4268251e-13
1.5808709e-14
-3.5479533e-13
1.6364199e-14
-3.6727305e-13
1.6875951e-14
-3.8008571e-13
1.7346428e-14
-3.9320499e-13
1.7777912e-14
-4.0660407e-13
1.8172503e-14
-4.202575e-13
1.8532135e-14
-4.3414111e-13
1.8858584e-14
-4.482319e-13
1.915348e-14
-4.6250794e-13
1.9418313e-14
-4.7694828e-13
1.9654448e-14
-4.9153285e-13
1.9863132e-14
-5.0624242e-13
2.0045504e-14
-5.210585e-13
2.0202603e-14
-5.3596329e-13
2.0335376e-14
-5.5093962e-13
2.0444688e-14
-5.6597086e-13
2.0531327e-14
-5.8104094e-13
2.0596011e-14
-5.9613424e-13
2.0639393e-14
-6.1123557e-13
2.0662069e-14
-6.2633016e-13
2.0664581e-14
-6.4140357e-13
2.064742e-14
-6.564417e-13
2.0611036e-14
-6.7143074e-13
2.0555835e-14
-6.8635717e-13
2.0482187e-14
-7.012077e-13
2.0390426e-14
-7.1596926e-13
2.0280857e-14
-7.3062899e-13
2.0153753e-14
-7.4517421e-13
2.0009362e-14
-7.595924e-13
1.9847907e-14
-7.7387122e-13
1.9669588e-14
-7.8799841e-13
1.9474583e-14
-8.0196187e-13
1.9263053e-14
-8.157496e-13
1.9035138e-14
-8.2934969e-13
1.8790962e-14
-8.427503e-13
1.8530634e-14
-8.5593968e-13
1.8254247e-14
-8.6890614e-13
1.7961882e-14
-8.8163803e-13
1.7653604e-14
-8.9412376e-13
1.7329469e-14
-9.0635177e-13
1.6989521e-14
-9.1831053e-13
1.6633792e-14
-9.2998852e-13
1.6262305e-14
-9.4137426e-13
1.5875076e-14
-9.5245626e-13
1.547211e-14
-9.6322304e-13
1.5053405e-14
-9.7366311e-13
1.4618953e-14
-9.83765e-13
1.4168739e-14
-9.935172e-13
1.3702744e-14
-1.0029082e-12
1.3220943e-14
-1.0119265e-12
1.2723308e-14
-1.0205606e-12
1.2209809e-14
-1.0287988e-12
1.1680413e-14
-1.0366297e-12
1.1135085e-14
-1.0440416e-12
1.057379e-14
-1.0510229e-12
9.9964909e-15
-1.057562e-12
9.4031534e-15
-1.0636473e-12
8.7937445e-15
-1.069267e-12
8.1682343e-15
-1.0744096e-12
7.5265969e-15
-1.0790633e-12
6.8688115e-15
-1.0832165e-12
6.1948641e-15
-1.0868574e-12
5.5047476e-15
-1.0899744e-12
4.798464e-15
-1.0925559e-12
4.0760237e-15
-1.0945903e-12
3.3374489e-15
-1.0960659e-12
2.5827707e-15
-1.0969711e-12
1.8120364e-15
-1.0972946e-12
1.0253055e-15
-1.0970248e-12
2.2265402e-16
-1.0961504e-12
-5.9582915e-16
-1.0946602e-12
-1.4300321e-15
-1.0925429e-12
-2.2798281e-15
-1.0897876e-12
-3.1450698e-15
-1.0863832e-12
-4.0255896e-15
-1.0823191e-12
-4.9211974e-15
-1.0775846e-12
-5.8316808e-15
-1.0721693e-12
-6.7568036e-15
-1.066063e-12
-7.6963054e-15
-1.0592556e-12
-8.6498998e-15
-1.0517374e-12
-9.6172748e-15
-1.0434989e-12
-1.059809e-14
-1.0345308e-12
-1.1591979e-14
-1.0248241e-12
-1.2598545e-14
-1.0143704e-12
-1.3617366e-14
-1.0031611e-12
-1.4647988e-14
-9.9118849e-13
-1.5689932e-14
-9.7844489e-13
-1.6742688e-14
-9.6492317e-13
-1.780572e-14
-9.5061658e-13
-1.8878461e-14
-9.3551878e-13
-1.9960318e-14
-9.1962393e-13
-2.1050671e-14
-9.0292664e-13
-2.2148873e-14
-8.85422e-13
-2.3254252e-14
-8.6710563e-13
-2.4366114e-14
-8.4797367e-13
-2.548374e-14
-8.2802277e-13
-2.6606389e-14
-8.0725017e-13
-2.7733305e-14
-7.8565365e-13
-2.886371e-14
-7.6323156e-13
-2.9996813e-14
-7.3998285e-13
-3.1131811e-14
-7.1590703e-13
-3.2267889e-14
-6.9100424e-13
-3.3404226e-14
-6.6527518e-13
-3.4539996e-14
-6.3872116e-13
-3.5674371e-14
-6.1134408e-13
-3.6806526e-14
-5.8314643e-13
-3.7935643e-14
-5.5413129e-13
-3.9060915e-14
-5.2430226e-13
-4.0181553e-14
-4.9366354e-13
-4.1296784e-14
-4.6221983e-13
-4.240586e-14
-4.2997634e-13
-4.3508068e-14
-3.9693877e-13
-4.4602741e-14
-3.6311322e-13
-4.5689262e-14
-3.2850621e-13
-4.676706e-14
-2.931246e-13
-4.7835634e-14
-2.5697551e-13
-4.8894582e-14
-2.2006626e-13
-4.9943626e-14
-1.8240425e-13
-5.098258e-14
-1.439969e-13
-5.2011379e-14
-1.0485139e-13
-5.3030307e-14
-6.4974428e-14
-5.4039911e-14
-2.4372107e-14
-5.5040969e-14
1.6950543e-14
-5.6034821e-14
5.8990074e-14
-5.702355e-14
1.0174551e-13
-5.8010347e-14
1.4521957e-13
-5.8999981e-14
1.8942019e-13
-5.9999564e-14
2.3436324e-13
-6.1019803e-14
2.8007666e-13
-6.2076953e-14
3.2660637e-13
-6.3195941e-14
3.7402562e-13
-6.4415183e-14
4.2244922e-13
-6.5794175e-14
4.72055e-13
-6.7425296e-14
5.2311589e-13
-6.9451908e-14
5.760466e-13
-7.2095494e-14
6.3146874e-13
-7.5694937e-14
6.9029441e-13
-8.0760127e-14
7.5381265e-13
-8.8029047e-14
8.2372775e-13
-9.8470031e-14
9.0205289e-13
-1.1319383e-13
9.9011304e-13
-1.3334855e-13
-1.565915e-13
-1.4031076e-13
2.4887895e-13
-4.2449881e-13
5.5674188e-13
-7.5364162e-13
6.7694416e-13
-1.0634721e-12
6.5529098e-13
-1.319428e-12
5.5251166e-13
-1.5086308e-12
4.1632477e-13
-1.631689e-12
2.774053e-13
-1.6963105e-12
1.5248594e-13
-1.7130536e-12
4.8794032e-14
-1.6928135e-12
-3.2179271e-14
-1.6455166e-12
-9.2023938e-14
-1.5795696e-12
-1.3371843e-13
-1.5017404e-12
-1.6064147e-13
-1.4172659e-12
-1.7603693e-13
-1.3300599e-12
-1.8275913e-13
-1.2429498e-12
-1.831828e-13
-1.1579037e-12
-1.7920403e-13
-1.0762312e-12
-1.7228694e-13
-9.9875032e-13
-1.63529e-13
-9.2592284e-13
-1.5372952e-13
-8.5795891e-13
-1.4345347e-13
-7.9489722e-13
-1.3308679e-13
-7.3666423e-13
-1.2288228e-13
-6.8311698e-13
-1.1299627e-13
-6.3407324e-13
-1.035172e-13
-5.8933199e-13
-9.4487219e-14
-5.4868675e-13
-8.5918244e-14
-5.1193388e-13
-7.7803474e-14
-4.7887714e-13
-7.0125497e-14
-4.4932994e-13
-6.2861767e-14
-4.2311592e-13
-5.5988155e-14
-4.0006865e-13
-4.9481092e-14
-3.800308e-13
-4.331874e-14
-3.6285312e-13
-3.7481506e-14
-3.4839337e-13
-3.1952123e-14
-3.3651536e-13
-2.6715477e-14
-3.2708819e-13
-2.1758291e-14
-3.1998559e-13
-1.7068774e-14
-3.1508551e-13
-1.2636251e-14
-3.122698e-13
-8.4508524e-15
-3.1142406e-13
-4.5032407e-15
-3.1243757e-13
-7.8440061e-16
-3.1520331e-13
2.7145326e-15
-3.1961798e-13
6.0023286e-15
-3.2558204e-13
9.0877097e-15
-3.3299983e-13
1.1979405e-14
-3.4177957e-13
1.4686132e-14
-3.5183344e-13
1.7216567e-14
-3.6307759e-13
1.95793e-14
-3.7543206e-13
2.1782786e-14
-3.8882081e-13
2.3835297e-14
-4.0317161e-13
2.5744873e-14
-4.184159e-13
2.7519279e-14
-4.3448875e-13
2.9165972e-14
-4.5132863e-13
3.069207e-14
-4.6887729e-13
3.2104335e-14
-4.8707963e-13
3.3409154e-14
-5.0588345e-13
3.4612535e-14
-5.2523936e-13
3.5720108e-14
-5.4510054e-13
3.6737127e-14
-5.6542259e-13
3.7668479e-14
-5.8616337e-13
3.8518694e-14
-6.0728284e-13
3.9291966e-14
-6.2874287e-13
3.9992164e-14
-6.5050714e-13
4.0622852e-14
-6.7254096e-13
4.1187308e-14
-6.9481119e-13
4.1688542e-14
-7.1728606e-13
4.2129315e-14
-7.3993509e-13
4.2512157e-14
-7.6272897e-13
4.2839387e-14
-7.8563949e-13
4.3113124e-14
-8.0863943e-13
4.3335311e-14
-8.3170246e-13
4.3507721e-14
-8.5480311e-13
4.3631977e-14
-8.7791666e-13
4.3709561e-14
-9.010191e-13
4.3741828e-14
-9.2408705e-13
4.3730017e-14
-9.4709772e-13
4.3675257e-14
-9.7002888e-13
4.3578581e-14
-9.9285878e-13
4.3440929e-14
-1.0155661e-12
4.3263161e-14
-1.03813e-12
4.3046061e-14
-1.0605299e-12
4.2790342e-14
-1.0827457e-12
4.2496653e-14
-1.1047575e-12
4.2165587e-14
-1.1265458e-12
4.1797678e-14
-1.1480914e-12
4.1393413e-14
-1.169375e-12
4.0953232e-14
-1.1903779e-12
4.047753e-14
-1.2110816e-12
3.9966666e-14
-1.2314674e-12
3.9420958e-14
-1.2515171e-12
3.8840692e-14
-1.2712126e-12
3.8226121e-14
-1.2905358e-12
3.7577468e-14
-1.3094689e-12
3.6894926e-14
-1.3279939e-12
3.6178667e-14
-1.3460933e-12
3.5428833e-14
-1.3637493e-12
3.4645546e-14
-1.3809444e-12
3.3828908e-14
-1.3976611e-12
3.2978998e-14
-1.4138819e-12
3.209588e-14
-1.4295894e-12
3.1179601e-14
-1.4447662e-12
3.0230193e-14
-1.4593949e-12
2.9247673e-14
-1.4734583e-12
2.8232048e-14
-1.4869388e-12
2.7183314e-14
-1.4998193e-12
2.610146e-14
-1.5120825e-12
2.4986468e-14
-1.523711e-12
2.3838314e-14
-1.5346876e-12
2.2656973e-14
-1.5449949e-12
2.1442416e-14
-1.5546157e-12
2.0194612e-14
-1.5635328e-12
1.8913534e-14
-1.5717288e-12
1.7599154e-14
-1.5791865e-12
1.6251454e-14
-1.5858887e-12
1.487042e-14
-1.5918181e-12
1.345605e-14
-1.5969577e-12
1.2008354e-14
-1.6012902e-12
1.0527355e-14
-1.6047985e-12
9.0130935e-15
-1.6074657e-12
7.4656293e-15
-1.6092747e-12
5.885041e-15
-1.6102087e-12
4.271434e-15
-1.6102508e-12
2.6249315e-15
-1.6093845e-12
9.4569608e-16
-1.6075931e-12
-7.6609522e-16
-1.6048602e-12
-2.5102186e-15
-1.6011697e-12
-4.2864201e-15
-1.5965053e-12
-6.0944103e-15
-1.5908512e-12
-7.9338603e-15
-1.5841919e-12
-9.8044023e-15
-1.5765119e-12
-1.1705623e-14
-1.567796e-12
-1.3637066e-14
-1.5580295e-12
-1.5598225e-14
-1.5471977e-12
-1.7588546e-14
-1.5352866e-12
-1.9607426e-14
-1.5222823e-12
-2.1654208e-14
-1.5081714e-12
-2.3728182e-14
-1.4929409e-12
-2.5828584e-14
-1.4765783e-12
-2.7954592e-14
-1.4590715e-12
-3.010533e-14
-1.440409e-12
-3.2279863e-14
-1.4205798e-12
-3.4477201e-14
-1.3995735e-12
-3.6696296e-14
-1.3773801e-12
-3.8936046e-14
-1.3539905e-12
-4.1195288e-14
-1.3293962e-12
-4.347281e-14
-1.3035892e-12
-4.5767341e-14
-1.2765623e-12
-4.807756e-14
-1.2483091e-12
-5.0402095e-14
-1.2188238e-12
-5.2739526e-14
-1.1881015e-12
-5.5088388e-14
-1.1561381e-12
-5.7447172e-14
-1.1229302e-12
-5.9814331e-14
-1.0884752e-12
-6.2188284e-14
-1.0527715e-12
-6.4567414e-14
-1.0158182e-12
-6.6950085e-14
-9.776154e-13
-6.9334632e-14
-9.3816391e-13
-7.171938e-14
-8.974655e-13
-7.410264e-14
-8.5552277e-13
-7.6482724e-14
-8.123392e-13
-7.885794e-14
-7.6791911e-13
-8.1226611e-14
-7.2226767e-13
-8.3587078e-14
-6.7539087e-13
-8.5937717e-14
-6.2729549e-13
-8.8276938e-14
-5.7798908e-13
-9.0603198e-14
-5.2747994e-13
-9.2915008e-14
-4.7577705e-13
-9.521096e-14
-4.2289004e-13
-9.7489753e-14
-3.6882911e-13
-9.9750197e-14
-3.1360497e-13
-1.019912e-13
-2.5722878e-13
-1.0421183e-13
-1.9971198e-13
-1.0641138e-13
-1.4106617e-13
-1.0858944e-13
-8.1302946e-14
-1.1074581e-13
-2.0433694e-14
-1.1288063e-13
4.1530507e-14
-1.149945e-13
1.0457923e-13
-1.1708863e-13
1.6870348e-13
-1.1916522e-13
2.3389616e-13
-1.212275e-13
3.0015284e-13
-1.2328023e-13
3.6747296e-13
-1.2533046e-13
4.3586146e-13
-1.2738849e-13
5.0533125e-13
-1.2946935e-13
5.7590665e-13
-1.315952e-13
6.4762843e-13
-1.3379874e-13
7.2056109e-13
-1.361286e-13
7.9480323e-13
-1.3865733e-13
8.7050235e-13
-1.414933e-13
9.4787519e-13
-1.4479813e-13
1.0272346e-12
-1.4881127e-13
1.1090221e-12
-1.5388305e-13
1.193842e-12
-1.6051478e-13
1.2824794e-12
-1.6939756e-13
1.37587e-12
-1.8141964e-13
1.474952e-12
-1.9755207e-13
1.580233e-12
-2.1847485e-13
1.6906212e-12
-2.4373677e-13
-2.6850611e-13
-1.8265563e-13
4.3153458e-13
-5.2487438e-13
8.9896063e-13
-8.9417295e-13
1.0462427e-12
-1.2195295e-12
9.8064756e-13
-1.4712812e-12
8.0426335e-13
-1.644167e-12
5.8921055e-13
-1.7454239e-12
3.7866221e-13
-1.7873571e-12
1.9441912e-13
-1.783212e-12
4.464897e-14
-1.7451439e-12
-7.0247352e-14
-1.6834196e-12
-1.5374831e-13
-1.6062562e-12
-2.1088182e-13
-1.5199767e-12
-2.4692097e-13
-1.4292903e-12
-2.667233e-13
-1.3375998e-12
-2.7444969e-13
-1.2472868e-12
-2.7349575e-13
-1.1599575e-12
-2.6653335e-13
-1.0766424e-12
-2.5560204e-13
-9.9795529e-13
-2.4221613e-13
-9.2421528e-13
-2.2746953e-13
-8.555393e-13
-2.1212944e-13
-7.9191029e-13
-1.9671581e-13
-7.3322657e-13
-1.81566e-13
-6.7933672e-13
-1.6688612e-13
-6.3006343e-13
-1.5279049e-13
-5.8521919e-13
-1.3933146e-13
-5.4461607e-13
-1.2652136e-13
-5.0807136e-13
-1.1434819e-13
-4.7541026e-13
-1.027866e-13
-4.4646676e-13
-9.1805267e-14
-4.2108336e-13
-8.1371553e-14
-3.9911017e-13
-7.1454286e-14
-3.8040372e-13
-6.2025193e-14
-3.6482578e-13
-5.3059441e-14
-3.5224229e-13
-4.453561e-14
-3.4252245e-13
-3.6435318e-14
-3.3553807e-13
-2.8742673e-14
-3.3116314e-13
-2.1443705e-14
-3.2927361e-13
-1.4525781e-14
-3.2974733e-13
-7.9771381e-15
-3.324641e-13
-1.7864703e-15
-3.3730593e-13
4.0574371e-15
-3.4415723e-13
9.5658245e-15
-3.5290498e-13
1.475008e-14
-3.6343912e-13
1.962185e-14
-3.7565276e-13
2.4193042e-14
-3.894424e-13
2.847578e-14
-4.0470817e-13
3.2482331e-14
-4.2135388e-13
3.6225016e-14
-4.3928721e-13
3.9716114e-14
-4.5841968e-13
4.2967766e-14
-4.7866669e-13
4.5991882e-14
-4.9994747e-13
4.880006e-14
-5.2218502e-13
5.1403517e-14
-5.4530597e-13
5.3813028e-14
-5.6924052e-13
5.6038884e-14
-5.9392223e-13
5.8090859e-14
-6.1928788e-13
5.9978189e-14
-6.4527734e-13
6.1709564e-14
-6.7183334e-13
6.3293128e-14
-6.9890134e-13
6.4736481e-14
-7.2642935e-13
6.60467e-14
-7.5436774e-13
6.7230352e-14
-7.8266909e-13
6.8293516e-14
-8.1128805e-13
6.9241813e-14
-8.4018117e-13
7.0080425e-14
-8.6930675e-13
7.0814128e-14
-8.9862475e-13
7.1447314e-14
-9.2809662e-13
7.1984022e-14
-9.5768519e-13
7.2427961e-14
-9.873546e-13
7.2782537e-14
-1.0170702e-12
7.3050877e-14
-1.0467983e-12
7.3235847e-14
-1.0765064e-12
7.3340077e-14
-1.1061628e-12
7.336598e-14
-1.1357368e-12
7.3315765e-14
-1.1651982e-12
7.3191461e-14
-1.1945179e-12
7.2994924e-14
-1.2236671e-12
7.2727859e-14
-1.252618e-12
7.2391824e-14
-1.2813431e-12
7.198825e-14
-1.3098155e-12
7.1518445e-14
-1.3380088e-12
7.0983608e-14
-1.365897e-12
7.0384835e-14
-1.3934545e-12
6.9723129e-14
-1.4206562e-12
6.8999405e-14
-1.4474773e-12
6.8214498e-14
-1.4738933e-12
6.736917e-14
-1.4998798e-12
6.6464112e-14
-1.5254131e-12
6.5499952e-14
-1.5504694e-12
6.4477258e-14
-1.5750253e-12
6.3396544e-14
-1.5990574e-12
6.2258272e-14
-1.6225428e-12
6.1062853e-14
-1.6454586e-12
5.9810658e-14
-1.6677819e-12
5.8502013e-14
-1.6894903e-12
5.7137205e-14
-1.7105612e-12
5.5716486e-14
-1.7309724e-12
5.4240075e-14
-1.7507016e-12
5.2708158e-14
-1.7697266e-12
5.1120895e-14
-1.7880254e-12
4.9478419e-14
-1.805576e-12
4.7780841e-14
-1.8223566e-12
4.6028249e-14
-1.8383453e-12
4.4220716e-14
-1.8535203e-12
4.2358298e-14
-1.8678599e-12
4.044104e-14
-1.8813424e-12
3.8468978e-14
-1.8939462e-12
3.6442142e-14
-1.9056498e-12
3.4360559e-14
-1.9164316e-12
3.2224252e-14
-1.9262703e-12
3.0033247e-14
-1.9351443e-12
2.778757e-14
-1.9430324e-12
2.5487256e-14
-1.9499133e-12
2.3132353e-14
-1.9557658e-12
2.0722921e-14
-1.9605688e-12
1.8259041e-14
-1.9643012e-12
1.5740812e-14
-1.9669423e-12
1.3168363e-14
-1.968471e-12
1.0541848e-14
-1.9688669e-12
7.8614597e-15
-1.9681092e-12
5.127415e-15
-1.9661778e-12
2.3399936e-15
-1.9630523e-12
-5.0051686e-16
-1.9587129e-12
-3.3937518e-15
-1.9531397e-12
-6.3393014e-15
-1.9463132e-12
-9.336709e-15
-1.9382142e-12
-1.2385455e-14
-1.9288236e-12
-1.5484963e-14
-1.9181229e-12
-1.8634591e-14
-1.9060937e-12
-2.1833631e-14
-1.892718e-12
-2.5081301e-14
-1.8779783e-12
-2.8376745e-14
-1.8618575e-12
-3.171903e-14
-1.8443389e-12
-3.5107145e-14
-1.8254063e-12
-3.8539996e-14
-1.8050441e-12
-4.2016403e-14
-1.7832372e-12
-4.5535103e-14
-1.7599711e-12
-4.9094744e-14
-1.7352318e-12
-5.2693883e-14
-1.7090061e-12
-5.6330989e-14
-1.6812816e-12
-6.0004441e-14
-1.6520462e-12
-6.3712527e-14
-1.6212891e-12
-6.7453448e-14
-1.5889998e-12
-7.1225314e-14
-1.555169e-12
-7.5026148e-14
-1.5197879e-12
-7.885389e-14
-1.4828488e-12
-8.2706394e-14
-1.444345e-12
-8.6581436e-14
-1.4042704e-12
-9.0476713e-14
-1.36262e-12
-9.4389852e-14
-1.31939e-12
-9.8318409e-14
-1.2745773e-12
-1.0225988e-13
-1.2281799e-12
-1.062117e-13
-1.180197e-12
-1.1017126e-13
-1.1306285e-12
-1.1413591e-13
-1.0794756e-12
-1.1810295e-13
-1.0267406e-12
-1.2206966e-13
-9.7242667e-13
-1.260333e-13
-9.1653817e-13
-1.2999114e-13
-8.5908046e-13
-1.3394043e-13
-8.0005996e-13
-1.3787844e-13
-7.3948409e-13
-1.4180247e-13
-6.7736132e-13
-1.4570986e-13
-6.1370103e-13
-1.49598e-13
-5.4851361e-13
-1.5346437e-13
-4.8181028e-13
-1.5730653e-13
-4.1360316e-13
-1.6112213e-13
-3.4390518e-13
-1.6490895e-13
-2.7272994e-13
-1.6866499e-13
-2.0009169e-13
-1.7238845e-13
-1.260052e-13
-1.760777e-13
-5.0485672e-14
-1.7973137e-13
2.6451434e-14
-1.8334849e-13
1.0479037e-13
-1.8692838e-13
1.8451554e-13
-1.9047098e-13
2.6561184e-13
-1.9397692e-13
3.4806483e-13
-1.9744749e-13
4.3186126e-13
-2.0088507e-13
5.1698949e-13
-2.0429345e-13
6.0344029e-13
-2.076783e-13
6.9120786e-13
-2.1104781e-13
7.8029117e-13
-2.1441377e-13
8.7069572e-13
-2.1779304e-13
9.6243612e-13
-2.2120975e-13
1.0555394e-12
-2.2469849e-13
1.1500498e-12
-2.2830912e-13
1.2460349e-12
-2.321137e-13
1.343594e-12
-2.3621642e-13
1.4428686e-12
-2.4076788e-13
1.5440548e-12
-2.4598435e-13
1.6474166e-12
-2.521731e-13
1.7532956e-12
-2.5976205e-13
1.8621085e-12
-2.6932766e-13
1.9743151e-12
-2.8160415e-13
2.0903288e-12
-2.9743332e-13
2.2103289e-12
-3.1755222e-13
2.3338993e-12
-3.4204527e-13
2.459495e-12
-3.6933248e-13
-3.9431106e-13
-2.1826117e-13
6.4979575e-13
-5.8564735e-13
1.2663468e-12
-9.4169659e-13
1.402292e-12
-1.2209319e-12
1.2598829e-12
-1.4094386e-12
9.9277005e-13
-1.5164213e-12
6.9619325e-13
-1.5587554e-12
4.2099627e-13
-1.5536047e-12
1.8926838e-13
-1.5155846e-12
6.6289538e-15
-1.4561164e-12
-1.2971565e-13
-1.3836805e-12
-2.2618417e-13
-1.3043476e-12
-2.9021472e-13
-1.2223332e-12
-3.2893538e-13
-1.1404821e-12
-3.4857436e-13
-1.0606544e-12
-3.5427742e-13
-9.8401741e-13
-3.5013271e-13
-9.1126106e-13
-3.392897e-13
-8.4275255e-13
-3.2411055e-13
-7.7864662e-13
-3.0632205e-13
-7.1896274e-13
-2.8715341e-13
-6.6363844e-13
-2.6745374e-13
-6.1256553e-13
-2.4778872e-13
-5.6561395e-13
-2.2851758e-13
-5.226469e-13
-2.0985317e-13
-4.8352981e-13
-1.9190758e-13
-4.4813501e-13
-1.7472626e-13
-4.1634358e-13
-1.5831279e-13
-3.8804531e-13
-1.4264645e-13
-3.6313759e-13
-1.2769432e-13
-3.415237e-13
-1.1341915e-13
-3.2311096e-13
-9.9784296e-14
-3.0780888e-13
-8.675637e-14
-2.9552759e-13
-7.4306481e-14
-2.8617656e-13
-6.2410467e-14
-2.7966364e-13
-5.1048534e-14
-2.7589443e-13
-4.020453e-14
-2.7477202e-13
-2.9865078e-14
-2.7619697e-13
-2.0018762e-14
-2.8006748e-13
-1.0655268e-14
-2.8627978e-13
-1.7648342e-15
-2.9472871e-13
6.6624584e-15
-3.0530816e-13
1.4636889e-14
-3.1791168e-13
2.2169341e-14
-3.3243309e-13
2.9271491e-14
-3.487671e-13
3.5955861e-14
-3.6680982e-13
4.2235759e-14
-3.8645922e-13
4.8125183e-14
-4.0761558e-13
5.3638681e-14
-4.3018174e-13
5.8791184e-14
-4.5406348e-13
6.3597847e-14
-4.7916959e-13
6.807388e-14
-5.0541211e-13
7.2234397e-14
-5.3270632e-13
7.6094273e-14
-5.6097083e-13
7.9668026e-14
-5.9012752e-13
8.2969719e-14
-6.2010151e-13
8.6012875e-14
-6.5082107e-13
8.8810416e-14
-6.8221751e-13
9.1374625e-14
-7.1422506e-13
9.3717117e-14
-7.4678075e-13
9.5848823e-14
-7.7982427e-13
9.7779997e-14
-8.1329779e-13
9.9520218e-14
-8.4714585e-13
1.0107841e-13
-8.8131522e-13
1.0246288e-13
-9.1575472e-13
1.0368132e-13
-9.5041513e-13
1.0474084e-13
-9.8524904e-13
1.0564803e-13
-1.0202107e-12
1.0640898e-13
-1.055256e-12
1.0702929e-13
-1.0903421e-12
1.0751413e-13
-1.1254279e-12
1.0786825e-13
-1.160473e-12
1.0809606e-13
-1.1954388e-12
1.0820158e-13
-1.2302872e-12
1.0818854e-13
-1.2649816e-12
1.0806035e-13
-1.299486e-12
1.0782016e-13
-1.3337654e-12
1.0747088e-13
-1.3677856e-12
1.0701516e-13
-1.4015133e-12
1.0645546e-13
-1.4349155e-12
1.0579405e-13
-1.4679602e-12
1.05033e-13
-1.500616e-12
1.0417422e-13
-1.5328519e-12
1.0321948e-13
-1.5646374e-12
1.0217038e-13
-1.5959427e-12
1.0102843e-13
-1.6267383e-12
9.9794982e-14
-1.6569951e-12
9.8471296e-14
-1.6866845e-12
9.7058523e-14
-1.7157781e-12
9.5557719e-14
-1.744248e-12
9.3969849e-14
-1.7720665e-12
9.2295797e-14
-1.7992063e-12
9.0536367e-14
-1.8256404e-12
8.8692292e-14
-1.8513417e-12
8.6764238e-14
-1.8762839e-12
8.4752807e-14
-1.9004404e-12
8.2658544e-14
-1.9237852e-12
8.0481938e-14
-1.9462921e-12
7.822343e-14
-1.9679354e-12
7.5883414e-14
-1.9886895e-12
7.3462239e-14
-2.0085289e-12
7.096022e-14
-2.0274281e-12
6.8377633e-14
-2.045362e-12
6.5714723e-14
-2.0623054e-12
6.297171e-14
-2.0782335e-12
6.0148786e-14
-2.0931213e-12
5.7246128e-14
-2.1069442e-12
5.4263896e-14
-2.1196774e-12
5.1202239e-14
-2.1312966e-12
4.8061301e-14
-2.1417773e-12
4.4841226e-14
-2.1510952e-12
4.1542154e-14
-2.1592262e-12
3.8164229e-14
-2.1661462e-12
3.4707603e-14
-2.1718314e-12
3.117244e-14
-2.176258e-12
2.7558926e-14
-2.1794023e-12
2.3867269e-14
-2.181241e-12
2.009771e-14
-2.1817507e-12
1.6250519e-14
-2.1809083e-12
1.2326014e-14
-2.178691e-12
8.3245437e-15
-2.1750761e-12
4.2465342e-15
-2.1700411e-12
9.2422485e-17
-2.1635639e-12
-4.1372565e-15
-2.1556225e-12
-8.4419048e-15
-2.1461954e-12
-1.2820878e-14
-2.1352612e-12
-1.7273439e-14
-2.1227992e-12
-2.179878e-14
-2.1087886e-12
-2.6396008e-14
-2.0932094e-12
-3.1064141e-14
-2.0760419e-12
-3.5802105e-14
-2.0572668e-12
-4.0608725e-14
-2.0368654e-12
-4.5482724e-14
-2.0148194e-12
-5.0422716e-14
-1.9911113e-12
-5.5427208e-14
-1.9657238e-12
-6.049459e-14
-1.9386407e-12
-6.5623139e-14
-1.9098461e-12
-7.0811009e-14
-1.8793249e-12
-7.6056235e-14
-1.847063e-12
-8.1356728e-14
-1.8130466e-12
-8.6710275e-14
-1.777263e-12
-9.2114534e-14
-1.7397004e-12
-9.7567044e-14
-1.7003478e-12
-1.0306521e-13
-1.6591949e-12
-1.0860633e-13
-1.6162326e-12
-1.1418757e-13
-1.5714528e-12
-1.1980597e-13
-1.5248482e-12
-1.2545846e-13
-1.4764128e-12
-1.3114187e-13
-1.4261413e-12
-1.3685292e-13
-1.3740298e-12
-1.425882e-13
-1.3200754e-12
-1.4834424e-13
-1.2642764e-12
-1.5411746e-13
-1.206632e-12
-1.5990421e-13
-1.147143e-12
-1.6570077e-13
-1.0858109e-12
-1.7150334e-13
-1.0226387e-12
-1.773081e-13
-9.576305e-13
-1.8311116e-13
-8.9079155e-13
-1.8890861e-13
-8.2212832e-13
-1.9469653e-13
-7.5164846e-13
-2.00471e-13
-6.7936075e-13
-2.0622814e-13
-6.0527514e-13
-2.1196405e-13
-5.2940271e-13
-2.1767491e-13
-4.517556e-13
-2.2335696e-13
-3.7234704e-13
-2.2900656e-13
-2.9119121e-13
-2.346202e-13
-2.0830328e-13
-2.4019447e-13
-1.2369929e-13
-2.4572611e-13
-3.7396084e-14
-2.5121216e-13
5.0588731e-14
-2.5664981e-13
1.4023681e-13
-2.6203654e-13
2.3152938e-13
-2.6737027e-13
3.2444732e-13
-2.7264931e-13
4.1897128e-13
-2.7787245e-13
5.1508195e-13
-2.8303905e-13
6.1276024e-13
-2.8814928e-13
7.1198754e-13
-2.9320422e-13
8.1274617e-13
-2.9820612e-13
9.1501986e-13
-3.0315875e-13
1.0187943e-12
-3.0806786e-13
1.1240578e-12
-3.1294182e-13
1.2308025e-12
-3.1779253e-13
1.3390255e-12
-3.2263676e-13
1.4487304e-12
-3.2749795e-13
1.5599296e-12
-3.3240895e-13
1.6726469e-12
-3.3741577e-13
1.7869208e-12
-3.4258301e-13
1.9028086e-12
-3.4800147e-13
2.0203908e-12
-3.5379865e-13
2.1397758e-12
-3.6015289e-13
2.2611029e-12
-3.6731142e-13
2.3845416e-12
-3.756118e-13
2.5102828e-12
-3.8550324e-13
2.6385137e-12
-3.9755855e-13
2.769366e-12
-4.1245649e-13
2.9028267e-12
-4.3089397e-13
3.0386077e-12
-4.5333329e-13
3.1759844e-12