/*--------------------------------*- C++ -*----------------------------------*\
| =========                 |                                                 |
| \\      /  F ield         | OpenFOAM: The Open Source CFD Toolbox           |
|  \\    /   O peration     | Version:  2406                                  |
|   \\  /    A nd           | Website:  www.openfoam.com                      |
|    \\/     M anipulation  |                                                 |
\*---------------------------------------------------------------------------*/
FoamFile
{
    version     2.0;
    format      ascii;
    arch        "LSB;label=32;scalar=64";
    class       volVectorField;
    location    "1255";
    object      U;
}
// * * * * * * * * * * * * * * * * * * * * * * * * * * * * * * * * * * * * * //

dimensions      [0 1 -1 0 0 0 0];

internalField   nonuniform List<vector> 
10200
(
(-3.4035988e-06 2.569356e-06 0)
(-0.00010920236 2.8736417e-05 0)
(-0.00030493033 4.2860189e-05 0)
(-0.00053115527 4.3599509e-05 0)
(-0.00073977805 3.7513058e-05 0)
(-0.00090861206 2.8680437e-05 0)
(-0.0010307409 1.9529649e-05 0)
(-0.00110781 1.1297136e-05 0)
(-0.0011457379 4.4763245e-06 0)
(-0.0011519933 -8.4127888e-07 0)
(-0.0011340547 -4.7656225e-06 0)
(-0.0010986427 -7.4944387e-06 0)
(-0.001051405 -9.2507822e-06 0)
(-0.00099686352 -1.0249871e-05 0)
(-0.00093849434 -1.0682222e-05 0)
(-0.00087887022 -1.0707073e-05 0)
(-0.00081982288 -1.0451708e-05 0)
(-0.00076259968 -1.0014087e-05 0)
(-0.00070800278 -9.4670447e-06 0)
(-0.00065650556 -8.8629268e-06 0)
(-0.00060834628 -8.2380327e-06 0)
(-0.00056360062 -7.6165117e-06 0)
(-0.00052223636 -7.0135974e-06 0)
(-0.00048415333 -6.438179e-06 0)
(-0.00044921183 -5.8947758e-06 0)
(-0.00041725221 -5.3850088e-06 0)
(-0.00038810783 -4.9086668e-06 0)
(-0.00036161326 -4.4644573e-06 0)
(-0.00033760908 -4.0505187e-06 0)
(-0.00031594439 -3.6647574e-06 0)
(-0.00029647781 -3.3050576e-06 0)
(-0.0002790775 -2.969403e-06 0)
(-0.00026362066 -2.6559389e-06 0)
(-0.00024999278 -2.3629948e-06 0)
(-0.00023808675 -2.0890832e-06 0)
(-0.00022780202 -1.8328848e-06 0)
(-0.00021904389 -1.5932264e-06 0)
(-0.00021172281 -1.3690576e-06 0)
(-0.00020575388 -1.1594281e-06 0)
(-0.00020105644 -9.6346844e-07 0)
(-0.00019755378 -7.8037277e-07 0)
(-0.00019517284 -6.0938551e-07 0)
(-0.00019384412 -4.4979085e-07 0)
(-0.00019350151 -3.0090659e-07 0)
(-0.00019408218 -1.6208699e-07 0)
(-0.00019552653 -3.2710027e-08 0)
(-0.00019777806 8.7820617e-08 0)
(-0.00020078334 2.0007616e-07 0)
(-0.0002044919 3.046022e-07 0)
(-0.00020885614 4.0191807e-07 0)
(-0.00021383125 4.9251639e-07 0)
(-0.00021937509 5.7686228e-07 0)
(-0.00022544805 6.553933e-07 0)
(-0.00023201297 7.2851918e-07 0)
(-0.00023903496 7.9662219e-07 0)
(-0.00024648132 8.6005752e-07 0)
(-0.00025432135 9.1915408e-07 0)
(-0.00026252627 9.742153e-07 0)
(-0.00027106906 1.0255204e-06 0)
(-0.00027992432 1.0733252e-06 0)
(-0.00028906818 1.1178642e-06 0)
(-0.00029847816 1.159351e-06 0)
(-0.00030813306 1.1979803e-06 0)
(-0.00031801288 1.2339291e-06 0)
(-0.00032809867 1.2673583e-06 0)
(-0.00033837248 1.2984133e-06 0)
(-0.00034881727 1.3272261e-06 0)
(-0.00035941682 1.3539158e-06 0)
(-0.00037015564 1.3785903e-06 0)
(-0.00038101896 1.4013469e-06 0)
(-0.00039199259 1.4222732e-06 0)
(-0.00040306294 1.4414484e-06 0)
(-0.00041421692 1.458944e-06 0)
(-0.00042544191 1.4748238e-06 0)
(-0.0004367257 1.489146e-06 0)
(-0.00044805648 1.5019621e-06 0)
(-0.0004594228 1.5133188e-06 0)
(-0.0004708135 1.5232578e-06 0)
(-0.00048221772 1.5318164e-06 0)
(-0.00049362486 1.5390279e-06 0)
(-0.00050502457 1.5449222e-06 0)
(-0.00051640668 1.5495256e-06 0)
(-0.00052776124 1.5528618e-06 0)
(-0.00053907847 1.5549514e-06 0)
(-0.00055034872 1.5558129e-06 0)
(-0.00056156251 1.5554617e-06 0)
(-0.00057271047 1.5539122e-06 0)
(-0.00058378334 1.5511756e-06 0)
(-0.00059477197 1.5472622e-06 0)
(-0.00060566728 1.5421802e-06 0)
(-0.00061646028 1.5359365e-06 0)
(-0.00062714205 1.5285363e-06 0)
(-0.00063770371 1.5199839e-06 0)
(-0.00064813643 1.5102818e-06 0)
(-0.00065843143 1.4994318e-06 0)
(-0.00066857996 1.4874339e-06 0)
(-0.00067857329 1.4742877e-06 0)
(-0.00068840271 1.4599912e-06 0)
(-0.00069805953 1.444542e-06 0)
(-0.00070753504 1.4279361e-06 0)
(-0.00071682056 1.4101697e-06 0)
(-0.0007259074 1.391237e-06 0)
(-0.00073478684 1.3711325e-06 0)
(-0.00074345017 1.349849e-06 0)
(-0.00075188865 1.3273795e-06 0)
(-0.00076009351 1.3037155e-06 0)
(-0.00076805598 1.2788493e-06 0)
(-0.00077576725 1.2527713e-06 0)
(-0.00078321846 1.2254728e-06 0)
(-0.00079040077 1.1969432e-06 0)
(-0.00079730526 1.1671731e-06 0)
(-0.00080392299 1.1361512e-06 0)
(-0.000810245 1.1038678e-06 0)
(-0.00081626228 1.0703109e-06 0)
(-0.00082196579 1.0354706e-06 0)
(-0.00082734647 9.9933486e-07 0)
(-0.0008323952 9.6189319e-07 0)
(-0.00083710285 9.2313412e-07 0)
(-0.00084146027 8.8304799e-07 0)
(-0.00084545827 8.4162365e-07 0)
(-0.00084908766 7.988529e-07 0)
(-0.00085233921 7.5472513e-07 0)
(-0.0008552037 7.092332e-07 0)
(-0.00085767189 6.6236742e-07 0)
(-0.00085973458 6.1412212e-07 0)
(-0.00086138253 5.6448892e-07 0)
(-0.00086260657 5.1346397e-07 0)
(-0.0008633975 4.610407e-07 0)
(-0.00086374621 4.0721863e-07 0)
(-0.0008636436 3.5199732e-07 0)
(-0.00086308065 2.9537833e-07 0)
(-0.0008620484 2.3736095e-07 0)
(-0.00086053795 1.7795095e-07 0)
(-0.00085854054 1.171516e-07 0)
(-0.00085604747 5.4972059e-08 0)
(-0.00085305017 -8.5802037e-09 0)
(-0.00084954023 -7.3492823e-08 0)
(-0.00084550937 -1.3975338e-07 0)
(-0.00084094946 -2.0734425e-07 0)
(-0.00083585258 -2.7624842e-07 0)
(-0.00083021099 -3.4644238e-07 0)
(-0.00082401716 -4.1790457e-07 0)
(-0.00081726379 -4.9060669e-07 0)
(-0.00080994383 -5.6452195e-07 0)
(-0.0008020505 -6.3961684e-07 0)
(-0.0007935773 -7.158588e-07 0)
(-0.00078451802 -7.9320783e-07 0)
(-0.00077486675 -8.7162591e-07 0)
(-0.00076461794 -9.5106761e-07 0)
(-0.00075376637 -1.0314896e-06 0)
(-0.00074230719 -1.1128409e-06 0)
(-0.00073023591 -1.1950729e-06 0)
(-0.00071754846 -1.278128e-06 0)
(-0.00070424116 -1.3619534e-06 0)
(-0.00069031075 -1.4464859e-06 0)
(-0.00067575439 -1.5316689e-06 0)
(-0.0006605697 -1.6174342e-06 0)
(-0.00064475476 -1.7037215e-06 0)
(-0.00062830807 -1.7904584e-06 0)
(-0.00061122865 -1.8775813e-06 0)
(-0.00059351594 -1.9650151e-06 0)
(-0.00057516988 -2.0526925e-06 0)
(-0.0005561909 -2.1405372e-06 0)
(-0.00053657988 -2.2284801e-06 0)
(-0.00051633819 -2.316445e-06 0)
(-0.00049546766 -2.4043624e-06 0)
(-0.00047397057 -2.4921554e-06 0)
(-0.00045184968 -2.579755e-06 0)
(-0.00042910814 -2.6670867e-06 0)
(-0.00040574956 -2.7540856e-06 0)
(-0.00038177792 -2.8406827e-06 0)
(-0.00035719756 -2.9268165e-06 0)
(-0.00033201318 -3.0124191e-06 0)
(-0.00030622977 -3.0974404e-06 0)
(-0.00027985255 -3.1818272e-06 0)
(-0.00025288693 -3.2655349e-06 0)
(-0.00022533849 -3.3485034e-06 0)
(-0.00019721282 -3.4307138e-06 0)
(-0.00016851535 -3.5121431e-06 0)
(-0.00013925135 -3.5927566e-06 0)
(-0.00010942565 -3.6725439e-06 0)
(-7.9042303e-05 -3.7515454e-06 0)
(-4.810415e-05 -3.8298122e-06 0)
(-1.661235e-05 -3.907431e-06 0)
(1.5434885e-05 -3.9844604e-06 0)
(4.8043985e-05 -4.0614159e-06 0)
(8.1228062e-05 -4.1394924e-06 0)
(0.00011501099 -4.2205523e-06 0)
(0.00014943418 -4.3078874e-06 0)
(0.00018456724 -4.4075319e-06 0)
(0.00022052572 -4.5305637e-06 0)
(0.00025750057 -4.6974229e-06 0)
(0.00029580647 -4.9456931e-06 0)
(0.00033596483 -5.344319e-06 0)
(0.00037885831 -6.0258261e-06 0)
(0.00042593676 -7.2525312e-06 0)
(0.00047918002 -9.3949957e-06 0)
(0.0005421266 -1.2689294e-05 0)
(0.00063064846 -2.0244929e-05 0)
(0.00075510838 -4.3300657e-05 0)
(-3.5211108e-05 0.00010856833 0)
(-0.00034448432 0.00030643585 0)
(-0.00081430198 0.00040665475 0)
(-0.0013277691 0.00041060561 0)
(-0.0017918073 0.00035569934 0)
(-0.0021637875 0.0002744052 0)
(-0.0024307399 0.00018813057 0)
(-0.0025971207 0.00010885145 0)
(-0.0026763407 4.2046468e-05 0)
(-0.0026850965 -1.0761011e-05 0)
(-0.002640052 -5.0223519e-05 0)
(-0.0025561552 -7.8032347e-05 0)
(-0.0024459561 -9.6240344e-05 0)
(-0.0023194959 -0.0001068862 0)
(-0.0021844968 -0.00011180335 0)
(-0.0020466863 -0.00011254067 0)
(-0.001910159 -0.00011034836 0)
(-0.0017777222 -0.00010619897 0)
(-0.0016512014 -0.00010082491 0)
(-0.001531694 -9.4760913e-05 0)
(-0.0014197742 -8.8385146e-05 0)
(-0.0013156517 -8.1955668e-05 0)
(-0.0012192914 -7.564103e-05 0)
(-0.001130502 -6.9544927e-05 0)
(-0.0010489988 -6.3725426e-05 0)
(-0.00097444798 -5.8209539e-05 0)
(-0.00090649552 -5.3003988e-05 0)
(-0.0008447863 -4.8102955e-05 0)
(-0.00078897525 -4.3493488e-05 0)
(-0.00073873333 -3.9159169e-05 0)
(-0.0006937502 -3.5082474e-05 0)
(-0.00065373453 -3.1246214e-05 0)
(-0.00061841316 -2.7634329e-05 0)
(-0.00058752956 -2.4232248e-05 0)
(-0.00056084206 -2.102697e-05 0)
(-0.00053812209 -1.8006969e-05 0)
(-0.00051915267 -1.5162019e-05 0)
(-0.00050372702 -1.2482976e-05 0)
(-0.00049164759 -9.9615642e-06 0)
(-0.0004827252 -7.5901748e-06 0)
(-0.00047677851 -5.3617012e-06 0)
(-0.00047363364 -3.2694004e-06 0)
(-0.00047312386 -1.3067958e-06 0)
(-0.0004750895 5.3236848e-07 0)
(-0.00047937782 2.2542082e-06 0)
(-0.0004858429 3.8646719e-06 0)
(-0.00049434564 5.3695815e-06 0)
(-0.00050475362 6.7746214e-06 0)
(-0.00051694107 8.0853226e-06 0)
(-0.00053078873 9.3070447e-06 0)
(-0.00054618365 1.0444957e-05 0)
(-0.00056301907 1.1504019e-05 0)
(-0.00058119417 1.2488969e-05 0)
(-0.00060061383 1.3404307e-05 0)
(-0.00062118837 1.4254288e-05 0)
(-0.00064283328 1.5042918e-05 0)
(-0.00066546892 1.5773952e-05 0)
(-0.00068902024 1.6450895e-05 0)
(-0.0007134165 1.7077008e-05 0)
(-0.00073859096 1.7655315e-05 0)
(-0.0007644806 1.818861e-05 0)
(-0.00079102587 1.8679468e-05 0)
(-0.00081817041 1.9130261e-05 0)
(-0.00084586079 1.9543161e-05 0)
(-0.00087404631 1.9920162e-05 0)
(-0.00090267875 2.0263086e-05 0)
(-0.00093171218 2.0573598e-05 0)
(-0.00096110277 2.0853218e-05 0)
(-0.0009908086 2.1103331e-05 0)
(-0.0010207895 2.1325199e-05 0)
(-0.0010510069 2.1519972e-05 0)
(-0.0010814237 2.1688694e-05 0)
(-0.0011120042 2.1832319e-05 0)
(-0.0011427138 2.195171e-05 0)
(-0.0011735191 2.2047653e-05 0)
(-0.0012043876 2.2120862e-05 0)
(-0.0012352879 2.2171985e-05 0)
(-0.0012661893 2.2201611e-05 0)
(-0.0012970619 2.2210272e-05 0)
(-0.0013278767 2.2198452e-05 0)
(-0.001358605 2.2166588e-05 0)
(-0.0013892189 2.2115076e-05 0)
(-0.0014196909 2.2044273e-05 0)
(-0.0014499942 2.1954502e-05 0)
(-0.0014801022 2.1846051e-05 0)
(-0.0015099887 2.1719181e-05 0)
(-0.001539628 2.1574126e-05 0)
(-0.0015689947 2.1411091e-05 0)
(-0.0015980636 2.1230261e-05 0)
(-0.0016268098 2.1031798e-05 0)
(-0.0016552086 2.0815844e-05 0)
(-0.0016832356 2.0582522e-05 0)
(-0.0017108665 2.0331937e-05 0)
(-0.0017380772 2.006418e-05 0)
(-0.0017648436 1.9779325e-05 0)
(-0.001791142 1.947743e-05 0)
(-0.0018169485 1.9158542e-05 0)
(-0.0018422394 1.8822695e-05 0)
(-0.0018669912 1.846991e-05 0)
(-0.0018911802 1.8100197e-05 0)
(-0.0019147829 1.7713559e-05 0)
(-0.0019377759 1.7309985e-05 0)
(-0.0019601356 1.6889458e-05 0)
(-0.0019818385 1.6451953e-05 0)
(-0.0020028612 1.5997437e-05 0)
(-0.0020231801 1.552587e-05 0)
(-0.0020427717 1.503721e-05 0)
(-0.0020616124 1.4531408e-05 0)
(-0.0020796786 1.4008412e-05 0)
(-0.0020969468 1.3468166e-05 0)
(-0.0021133933 1.2910613e-05 0)
(-0.0021289943 1.2335694e-05 0)
(-0.0021437261 1.1743348e-05 0)
(-0.0021575649 1.1133516e-05 0)
(-0.002170487 1.0506139e-05 0)
(-0.0021824685 9.861162e-06 0)
(-0.0021934854 9.1985327e-06 0)
(-0.002203514 8.5182037e-06 0)
(-0.0022125303 7.8201356e-06 0)
(-0.0022205104 7.104294e-06 0)
(-0.0022274304 6.3706566e-06 0)
(-0.0022332665 5.6192066e-06 0)
(-0.0022379949 4.8499428e-06 0)
(-0.0022415917 4.0628694e-06 0)
(-0.0022440333 3.2580095e-06 0)
(-0.0022452961 2.4353932e-06 0)
(-0.0022453567 1.5950759e-06 0)
(-0.0022441917 7.3713347e-07 0)
(-0.002241778 -1.383439e-07 0)
(-0.0022380926 -1.0312537e-06 0)
(-0.0022331127 -1.9414625e-06 0)
(-0.002226816 -2.8688187e-06 0)
(-0.0022191801 -3.8131434e-06 0)
(-0.0022101832 -4.7742374e-06 0)
(-0.0021998038 -5.7518712e-06 0)
(-0.0021880208 -6.7457924e-06 0)
(-0.0021748133 -7.7557174e-06 0)
(-0.0021601613 -8.7813362e-06 0)
(-0.0021440449 -9.8223051e-06 0)
(-0.0021264449 -1.0878254e-05 0)
(-0.0021073427 -1.1948774e-05 0)
(-0.0020867203 -1.3033434e-05 0)
(-0.0020645604 -1.4131762e-05 0)
(-0.0020408463 -1.5243261e-05 0)
(-0.0020155622 -1.6367397e-05 0)
(-0.001988693 -1.7503606e-05 0)
(-0.0019602244 -1.865129e-05 0)
(-0.0019301431 -1.9809821e-05 0)
(-0.0018984366 -2.0978536e-05 0)
(-0.0018650933 -2.2156747e-05 0)
(-0.0018301028 -2.3343733e-05 0)
(-0.0017934555 -2.4538748e-05 0)
(-0.001755143 -2.5741012e-05 0)
(-0.001715158 -2.694973e-05 0)
(-0.001673494 -2.8164073e-05 0)
(-0.0016301462 -2.9383201e-05 0)
(-0.0015851104 -3.0606245e-05 0)
(-0.0015383839 -3.183233e-05 0)
(-0.0014899651 -3.3060556e-05 0)
(-0.0014398538 -3.4290025e-05 0)
(-0.0013880506 -3.5519817e-05 0)
(-0.0013345578 -3.6749023e-05 0)
(-0.0012793786 -3.7976718e-05 0)
(-0.0012225174 -3.9201997e-05 0)
(-0.00116398 -4.0423952e-05 0)
(-0.0011037733 -4.1641702e-05 0)
(-0.0010419052 -4.2854369e-05 0)
(-0.00097838475 -4.406111e-05 0)
(-0.00091322223 -4.5261109e-05 0)
(-0.00084642877 -4.6453602e-05 0)
(-0.00077801647 -4.763787e-05 0)
(-0.00070799827 -4.8813247e-05 0)
(-0.00063638789 -4.9979122e-05 0)
(-0.00056319967 -5.1135006e-05 0)
(-0.00048844843 -5.2280519e-05 0)
(-0.00041214925 -5.3415371e-05 0)
(-0.00033431741 -5.4539361e-05 0)
(-0.00025496793 -5.5652543e-05 0)
(-0.00017411515 -5.675527e-05 0)
(-9.177236e-05 -5.7848318e-05 0)
(-7.9512929e-06 -5.8932996e-05 0)
(7.7339144e-05 -6.0011349e-05 0)
(0.00016409414 -6.1086495e-05 0)
(0.00025231472 -6.2163191e-05 0)
(0.00034201063 -6.3248591e-05 0)
(0.00043320469 -6.4354054e-05 0)
(0.00052593932 -6.549751e-05 0)
(0.00062028645 -6.6706978e-05 0)
(0.00071636254 -6.8026877e-05 0)
(0.00081435172 -6.9528276e-05 0)
(0.00091454111 -7.1325511e-05 0)
(0.0010173738 -7.360321e-05 0)
(0.001123527 -7.6659829e-05 0)
(0.0012340276 -8.0977015e-05 0)
(0.00135043 -8.7326707e-05 0)
(0.0014749571 -9.691635e-05 0)
(0.0016101271 -0.00011153201 0)
(0.0017596362 -0.00013371782 0)
(0.001941419 -0.00016693074 0)
(0.0021606258 -0.00020819827 0)
(-6.4052185e-05 0.00033756465 0)
(-0.00054235011 0.00079485573 0)
(-0.0011994181 0.00099296216 0)
(-0.0018792991 0.00097801969 0)
(-0.0024696873 0.00083588277 0)
(-0.0029273074 0.0006380934 0)
(-0.0032440531 0.00043203515 0)
(-0.0034311309 0.00024431022 0)
(-0.0035088494 8.6976202e-05 0)
(-0.0035000471 -3.6871832e-05 0)
(-0.0034264259 -0.00012907988 0)
(-0.0033068621 -0.00019381916 0)
(-0.0031568586 -0.0002360256 0)
(-0.0029886048 -0.000260538 0)
(-0.0028113455 -0.00027167049 0)
(-0.0026318603 -0.00027304561 0)
(-0.0024549498 -0.00026757551 0)
(-0.0022838777 -0.00025752053 0)
(-0.0021207477 -0.00024458166 0)
(-0.0019668113 -0.00023000172 0)
(-0.0018227119 -0.00021466146 0)
(-0.0016886707 -0.00019916404 0)
(-0.0015646278 -0.00018390551 0)
(-0.0014503444 -0.00016913153 0)
(-0.001345476 -0.0001549817 0)
(-0.0012496224 -0.00014152312 0)
(-0.0011623617 -0.00012877532 0)
(-0.0010832713 -0.00011672826 0)
(-0.0010119406 -0.00010535498 0)
(-0.00094797724 -9.4620128e-05 0)
(-0.00089100996 -8.4485585e-05 0)
(-0.00084068833 -7.4913829e-05 0)
(-0.0007966816 -6.5869833e-05 0)
(-0.00075867662 -5.7321922e-05 0)
(-0.00072637564 -4.9241963e-05 0)
(-0.00069949424 -4.1605148e-05 0)
(-0.00067775949 -3.4389559e-05 0)
(-0.00066090853 -2.7575655e-05 0)
(-0.00064868745 -2.1145742e-05 0)
(-0.00064085059 -1.5083507e-05 0)
(-0.00063716009 -9.3736063e-06 0)
(-0.0006373856 -4.0013462e-06 0)
(-0.00064130435 1.0475054e-06 0)
(-0.00064870109 5.7869665e-06 0)
(-0.00065936826 1.0230795e-05 0)
(-0.00067310612 1.4392612e-05 0)
(-0.00068972286 1.8285899e-05 0)
(-0.0007090347 2.1923961e-05 0)
(-0.00073086599 2.5319875e-05 0)
(-0.00075504915 2.8486429e-05 0)
(-0.00078142462 3.143606e-05 0)
(-0.00080984072 3.4180796e-05 0)
(-0.00084015346 3.6732201e-05 0)
(-0.00087222634 3.9101336e-05 0)
(-0.00090593003 4.1298719e-05 0)
(-0.00094114207 4.3334307e-05 0)
(-0.00097774657 4.5217478e-05 0)
(-0.0010156338 4.6957032e-05 0)
(-0.0010547 4.8561189e-05 0)
(-0.0010948467 5.0037601e-05 0)
(-0.0011359808 5.1393372e-05 0)
(-0.0011780137 5.2635075e-05 0)
(-0.0012208614 5.3768777e-05 0)
(-0.0012644442 5.4800067e-05 0)
(-0.0013086857 5.5734081e-05 0)
(-0.0013535135 5.6575537e-05 0)
(-0.0013988583 5.7328755e-05 0)
(-0.0014446536 5.7997694e-05 0)
(-0.0014908359 5.8585973e-05 0)
(-0.001537344 5.9096902e-05 0)
(-0.0015841191 5.9533502e-05 0)
(-0.0016311046 5.9898534e-05 0)
(-0.0016782457 6.0194517e-05 0)
(-0.0017254894 6.0423748e-05 0)
(-0.0017727844 6.0588324e-05 0)
(-0.0018200809 6.0690155e-05 0)
(-0.0018673305 6.0730984e-05 0)
(-0.0019144858 6.0712396e-05 0)
(-0.001961501 6.0635838e-05 0)
(-0.002008331 6.0502623e-05 0)
(-0.0020549317 6.031395e-05 0)
(-0.0021012601 6.0070906e-05 0)
(-0.0021472738 5.9774478e-05 0)
(-0.0021929311 5.9425565e-05 0)
(-0.0022381913 5.9024976e-05 0)
(-0.002283014 5.8573448e-05 0)
(-0.0023273594 5.8071642e-05 0)
(-0.0023711884 5.7520154e-05 0)
(-0.0024144622 5.6919518e-05 0)
(-0.0024571424 5.6270213e-05 0)
(-0.0024991911 5.5572664e-05 0)
(-0.0025405708 5.4827245e-05 0)
(-0.0025812441 5.4034288e-05 0)
(-0.0026211741 5.3194079e-05 0)
(-0.0026603239 5.2306864e-05 0)
(-0.002698657 5.1372854e-05 0)
(-0.0027361372 5.0392223e-05 0)
(-0.0027727281 4.9365112e-05 0)
(-0.0028083939 4.8291633e-05 0)
(-0.0028430987 4.7171869e-05 0)
(-0.0028768065 4.6005879e-05 0)
(-0.0029094818 4.4793695e-05 0)
(-0.0029410889 4.353533e-05 0)
(-0.0029715923 4.2230774e-05 0)
(-0.0030009565 4.0880002e-05 0)
(-0.0030291459 3.9482975e-05 0)
(-0.0030561252 3.8039639e-05 0)
(-0.003081859 3.6549931e-05 0)
(-0.0031063118 3.5013782e-05 0)
(-0.0031294482 3.3431115e-05 0)
(-0.0031512329 3.1801848e-05 0)
(-0.0031716305 3.0125898e-05 0)
(-0.0031906057 2.8403181e-05 0)
(-0.0032081231 2.6633617e-05 0)
(-0.0032241474 2.4817132e-05 0)
(-0.0032386433 2.2953662e-05 0)
(-0.0032515757 2.1043155e-05 0)
(-0.0032629092 1.9085576e-05 0)
(-0.0032726089 1.7080908e-05 0)
(-0.0032806396 1.5029156e-05 0)
(-0.0032869664 1.2930353e-05 0)
(-0.0032915546 1.0784555e-05 0)
(-0.0032943695 8.5918525e-06 0)
(-0.0032953766 6.352361e-06 0)
(-0.0032945417 4.0662433e-06 0)
(-0.0032918308 1.7337112e-06 0)
(-0.0032872101 -6.4497865e-07 0)
(-0.0032806462 -3.0695436e-06 0)
(-0.003272106 -5.5396303e-06 0)
(-0.0032615569 -8.0548338e-06 0)
(-0.0032489666 -1.0614696e-05 0)
(-0.0032343034 -1.3218696e-05 0)
(-0.0032175359 -1.5866251e-05 0)
(-0.0031986335 -1.855671e-05 0)
(-0.0031775661 -2.1289354e-05 0)
(-0.0031543044 -2.4063392e-05 0)
(-0.0031288196 -2.6877959e-05 0)
(-0.0031010841 -2.9732114e-05 0)
(-0.0030710706 -3.2624837e-05 0)
(-0.0030387532 -3.5555028e-05 0)
(-0.0030041065 -3.8521505e-05 0)
(-0.0029671066 -4.1523006e-05 0)
(-0.0029277302 -4.4558187e-05 0)
(-0.0028859555 -4.7625621e-05 0)
(-0.0028417616 -5.07238e-05 0)
(-0.0027951292 -5.3851133e-05 0)
(-0.0027460399 -5.7005949e-05 0)
(-0.0026944769 -6.0186498e-05 0)
(-0.0026404247 -6.3390953e-05 0)
(-0.0025838694 -6.6617412e-05 0)
(-0.0025247985 -6.9863903e-05 0)
(-0.0024632011 -7.3128383e-05 0)
(-0.0023990678 -7.6408749e-05 0)
(-0.002332391 -7.9702834e-05 0)
(-0.0022631646 -8.3008421e-05 0)
(-0.0021913843 -8.6323242e-05 0)
(-0.0021170475 -8.9644989e-05 0)
(-0.0020401534 -9.2971317e-05 0)
(-0.0019607029 -9.6299857e-05 0)
(-0.0018786986 -9.9628218e-05 0)
(-0.0017941451 -0.000102954 0)
(-0.0017070485 -0.0001062748 0)
(-0.0016174168 -0.00010958823 0)
(-0.0015252598 -0.00011289191 0)
(-0.0014305889 -0.00011618352 0)
(-0.0013334172 -0.00011946078 0)
(-0.0012337593 -0.00012272145 0)
(-0.0011316314 -0.00012596339 0)
(-0.0010270514 -0.00012918455 0)
(-0.00092003816 -0.00013238302 0)
(-0.00081061212 -0.00013555706 0)
(-0.00069879469 -0.00013870504 0)
(-0.00058460827 -0.00014182552 0)
(-0.00046807609 -0.00014491738 0)
(-0.00034922177 -0.00014797983 0)
(-0.00022806911 -0.00015101244 0)
(-0.00010464187 -0.00015401527 0)
(2.1036716e-05 -0.00015698907 0)
(0.00014894469 -0.00015993543 0)
(0.00027906205 -0.00016285706 0)
(0.00041137186 -0.00016575821 0)
(0.00054586176 -0.00016864528 0)
(0.00068252598 -0.00017152792 0)
(0.00082136801 -0.00017442044 0)
(0.0009624047 -0.00017734409 0)
(0.0011056721 -0.00018033058 0)
(0.0012512337 -0.00018342762 0)
(0.0013991932 -0.00018670749 0)
(0.0015497113 -0.00019028025 0)
(0.0017030313 -0.00019431398 0)
(0.0018595147 -0.0001990654 0)
(0.0020196886 -0.00020492533 0)
(0.0021843072 -0.00021248349 0)
(0.0023544253 -0.00022261572 0)
(0.0025314889 -0.00023658739 0)
(0.0027173139 -0.00025612959 0)
(0.0029133304 -0.00028333843 0)
(0.0031206228 -0.00032020502 0)
(0.0033540136 -0.00036738134 0)
(0.0036233643 -0.00041651571 0)
(-8.9096486e-05 0.00066543676 0)
(-0.00069442009 0.0014371134 0)
(-0.0014572212 0.0017158856 0)
(-0.002194331 0.0016418217 0)
(-0.0027928457 0.0013717522 0)
(-0.0032256654 0.0010245535 0)
(-0.0035005203 0.0006751718 0)
(-0.0036402576 0.00036367947 0)
(-0.0036724344 0.0001067709 0)
(-0.0036236647 -9.2771314e-05 0)
(-0.0035170393 -0.00023950724 0)
(-0.0033714231 -0.00034119886 0)
(-0.0032015586 -0.00040642442 0)
(-0.0030185734 -0.00044331088 0)
(-0.0028306147 -0.00045894799 0)
(-0.0026434684 -0.00045919809 0)
(-0.0024611055 -0.00044872058 0)
(-0.0022861369 -0.00043110092 0)
(-0.0021201776 -0.00040901942 0)
(-0.0019641311 -0.00038442412 0)
(-0.0018184055 -0.00035868939 0)
(-0.0016830752 -0.00033275262 0)
(-0.0015579989 -0.00030722669 0)
(-0.001442904 -0.00028248987 0)
(-0.0013374449 -0.00025875544 0)
(-0.0012412424 -0.00023612451 0)
(-0.0011539091 -0.00021462495 0)
(-0.0010750638 -0.00019423956 0)
(-0.0010043399 -0.00017492571 0)
(-0.00094138891 -0.00015662863 0)
(-0.00088588004 -0.00013929007 0)
(-0.00083749938 -0.00012285338 0)
(-0.00079594739 -0.00010726635 0)
(-0.00076093644 -9.2482387e-05 0)
(-0.00073218841 -7.8460662e-05 0)
(-0.0007094327 -6.5165609e-05 0)
(-0.00069240457 -5.2566117e-05 0)
(-0.0006808441 -4.0634631e-05 0)
(-0.00067449549 -2.9346205e-05 0)
(-0.00067310682 -1.8677732e-05 0)
(-0.00067643006 -8.6072407e-06 0)
(-0.00068422143 8.8657815e-07 0)
(-0.00069624174 9.8248777e-06 0)
(-0.00071225697 1.8228669e-05 0)
(-0.00073203875 2.6119049e-05 0)
(-0.00075536498 3.3517268e-05 0)
(-0.00078202029 4.0444676e-05 0)
(-0.00081179652 4.6922634e-05 0)
(-0.000844493 5.2972387e-05 0)
(-0.00087991684 5.8614934e-05 0)
(-0.00091788301 6.3870889e-05 0)
(-0.00095821446 6.8760352e-05 0)
(-0.001000742 7.3302794e-05 0)
(-0.0010453043 7.7516953e-05 0)
(-0.0010917475 8.1420761e-05 0)
(-0.0011399252 8.503128e-05 0)
(-0.0011896982 8.8364661e-05 0)
(-0.0012409337 9.1436122e-05 0)
(-0.0012935058 9.4259942e-05 0)
(-0.0013472943 9.6849466e-05 0)
(-0.001402185 9.9217124e-05 0)
(-0.0014580689 0.00010137446 0)
(-0.0015148422 0.00010333216 0)
(-0.0015724057 0.00010510011 0)
(-0.0016306645 0.00010668742 0)
(-0.0016895278 0.00010810246 0)
(-0.0017489086 0.00010935296 0)
(-0.0018087233 0.000110446 0)
(-0.0018688916 0.00011138807 0)
(-0.0019293361 0.00011218513 0)
(-0.001989982 0.00011284263 0)
(-0.0020507573 0.00011336558 0)
(-0.0021115921 0.00011375855 0)
(-0.0021724188 0.00011402572 0)
(-0.0022331717 0.00011417094 0)
(-0.0022937869 0.00011419771 0)
(-0.0023542023 0.00011410923 0)
(-0.0024143571 0.00011390844 0)
(-0.0024741923 0.00011359803 0)
(-0.0025336498 0.00011318043 0)
(-0.0025926731 0.00011265789 0)
(-0.0026512065 0.00011203245 0)
(-0.0027091956 0.00011130599 0)
(-0.0027665868 0.00011048019 0)
(-0.0028233273 0.00010955662 0)
(-0.0028793653 0.00010853668 0)
(-0.0029346497 0.00010742166 0)
(-0.00298913 0.00010621272 0)
(-0.0030427563 0.00010491091 0)
(-0.0030954794 0.00010351718 0)
(-0.0031472506 0.00010203238 0)
(-0.0031980217 0.00010045728 0)
(-0.0032477448 9.8792568e-05 0)
(-0.0032963726 9.7038842e-05 0)
(-0.0033438582 9.5196638e-05 0)
(-0.0033901547 9.3266422e-05 0)
(-0.0034352159 9.1248599e-05 0)
(-0.0034789956 8.9143514e-05 0)
(-0.0035214481 8.6951458e-05 0)
(-0.0035625278 8.4672674e-05 0)
(-0.0036021892 8.2307359e-05 0)
(-0.0036403871 7.9855666e-05 0)
(-0.0036770765 7.7317711e-05 0)
(-0.0037122126 7.4693577e-05 0)
(-0.0037457505 7.1983315e-05 0)
(-0.0037776457 6.9186955e-05 0)
(-0.0038078537 6.6304502e-05 0)
(-0.00383633 6.333595e-05 0)
(-0.0038630304 6.0281279e-05 0)
(-0.0038879107 5.7140461e-05 0)
(-0.0039109268 5.3913464e-05 0)
(-0.0039320349 5.0600254e-05 0)
(-0.003951191 4.72008e-05 0)
(-0.0039683515 4.3715081e-05 0)
(-0.0039834727 4.0143092e-05 0)
(-0.0039965112 3.6484848e-05 0)
(-0.0040074236 3.2740394e-05 0)
(-0.004016167 2.8909804e-05 0)
(-0.0040226984 2.4993194e-05 0)
(-0.004026975 2.0990719e-05 0)
(-0.0040289545 1.6902588e-05 0)
(-0.0040285946 1.2729053e-05 0)
(-0.0040258536 8.4704371e-06 0)
(-0.0040206899 4.1271286e-06 0)
(-0.0040130624 -3.0037907e-07 0)
(-0.0040029305 -4.8115727e-06 0)
(-0.0039902538 -9.4058265e-06 0)
(-0.0039749928 -1.408241e-05 0)
(-0.0039571083 -1.8840513e-05 0)
(-0.0039365618 -2.3679225e-05 0)
(-0.0039133154 -2.8597531e-05 0)
(-0.003887332 -3.35943e-05 0)
(-0.0038585753 -3.8668285e-05 0)
(-0.0038270098 -4.3818113e-05 0)
(-0.0037926008 -4.9042291e-05 0)
(-0.0037553148 -5.4339191e-05 0)
(-0.0037151192 -5.9707054e-05 0)
(-0.0036719825 -6.514398e-05 0)
(-0.0036258744 -7.0647932e-05 0)
(-0.0035767658 -7.6216725e-05 0)
(-0.0035246289 -8.1848034e-05 0)
(-0.0034694374 -8.7539384e-05 0)
(-0.0034111662 -9.3288161e-05 0)
(-0.0033497919 -9.9091603e-05 0)
(-0.0032852927 -0.0001049468 0)
(-0.0032176483 -0.00011085072 0)
(-0.0031468401 -0.00011680015 0)
(-0.0030728514 -0.00012279179 0)
(-0.0029956673 -0.00012882216 0)
(-0.0029152746 -0.0001348877 0)
(-0.0028316623 -0.00014098469 0)
(-0.0027448211 -0.00014710932 0)
(-0.0026547438 -0.00015325767 0)
(-0.0025614255 -0.0001594257 0)
(-0.0024648631 -0.00016560932 0)
(-0.0023650557 -0.00017180434 0)
(-0.0022620046 -0.00017800652 0)
(-0.0021557132 -0.00018421155 0)
(-0.0020461871 -0.0001904151 0)
(-0.0019334341 -0.00019661282 0)
(-0.0018174641 -0.00020280035 0)
(-0.0016982892 -0.00020897334 0)
(-0.0015759235 -0.00021512748 0)
(-0.0014503833 -0.0002212585 0)
(-0.0013216869 -0.00022736225 0)
(-0.0011898545 -0.00023343466 0)
(-0.0010549083 -0.00023947178 0)
(-0.00091687218 -0.00024546981 0)
(-0.00077577176 -0.00025142517 0)
(-0.00063163428 -0.00025733454 0)
(-0.00048448824 -0.00026319492 0)
(-0.00033436339 -0.00026900359 0)
(-0.00018129053 -0.00027475827 0)
(-2.5301256e-05 -0.00028045722 0)
(0.0001335725 -0.00028609936 0)
(0.00029529885 -0.00029168435 0)
(0.00045984615 -0.00029721289 0)
(0.00062718386 -0.0003026869 0)
(0.00079728344 -0.00030810992 0)
(0.00097011911 -0.00031348765 0)
(0.0011456691 -0.0003188287 0)
(0.0013239173 -0.00032414577 0)
(0.0015048562 -0.00032945744 0)
(0.0016884892 -0.00033479065 0)
(0.0018748353 -0.00034018444 0)
(0.0020639354 -0.00034569568 0)
(0.0022558595 -0.00035140751 0)
(0.0024507185 -0.00035744212 0)
(0.0026486785 -0.00036397938 0)
(0.00284998 -0.00037128413 0)
(0.0030549619 -0.00037974471 0)
(0.0032640886 -0.0003899254 0)
(0.0034779754 -0.00040263247 0)
(0.0036974024 -0.00041898584 0)
(0.0039233164 -0.00044046853 0)
(0.0041567068 -0.00046887745 0)
(0.0043977071 -0.00050596834 0)
(0.0046453194 -0.00055246061 0)
(0.0049126929 -0.0006060662 0)
(0.0052190933 -0.00065633375 0)
(-0.00011670603 0.0010702518 0)
(-0.0008120874 0.0021646894 0)
(-0.0015868933 0.0024702516 0)
(-0.0022569082 0.0022789363 0)
(-0.0027354367 0.0018419275 0)
(-0.0030299423 0.0013284055 0)
(-0.0031735485 0.00083572973 0)
(-0.0032034343 0.00041072386 0)
(-0.0031527803 6.9159632e-05 0)
(-0.0030482156 -0.00019026388 0)
(-0.0029097986 -0.00037698441 0)
(-0.0027521185 -0.00050337537 0)
(-0.0025854201 -0.0005819524 0)
(-0.0024167039 -0.00062400889 0)
(-0.0022506157 -0.00063908406 0)
(-0.0020901305 -0.00063488278 0)
(-0.001937061 -0.00061741932 0)
(-0.001792427 -0.00059125475 0)
(-0.0016567197 -0.00055975681 0)
(-0.0015300876 -0.000525346 0)
(-0.0014124669 -0.00048971152 0)
(-0.0013036695 -0.00045399196 0)
(-0.0012034433 -0.00041892129 0)
(-0.00111151 -0.00038494382 0)
(-0.0010275894 -0.00035230235 0)
(-0.00095141178 -0.00032110443 0)
(-0.0008827248 -0.00029137094 0)
(-0.00082129449 -0.00026307085 0)
(-0.00076690393 -0.00023614525 0)
(-0.00071935016 -0.00021052348 0)
(-0.00067844034 -0.00018613324 0)
(-0.00064398794 -0.00016290647 0)
(-0.00061580913 -0.00014078231 0)
(-0.00059371991 -0.00011970804 0)
(-0.00057753372 -9.9638841e-05 0)
(-0.0005670599 -8.0536763e-05 0)
(-0.00056210278 -6.2369368e-05 0)
(-0.00056246137 -4.5108362e-05 0)
(-0.00056792963 -2.8728153e-05 0)
(-0.000578297 -1.3204819e-05 0)
(-0.00059334942 1.4848676e-06 0)
(-0.0006128704 1.536441e-05 0)
(-0.00063664216 2.8457598e-05 0)
(-0.00066444684 4.0788969e-05 0)
(-0.0006960678 5.2383999e-05 0)
(-0.00073129075 6.3269053e-05 0)
(-0.00076990477 7.3471259e-05 0)
(-0.00081170326 8.3018313e-05 0)
(-0.00085648462 9.193824e-05 0)
(-0.00090405294 0.00010025914 0)
(-0.00095421839 0.00010800895 0)
(-0.0010067976 0.0001152152 0)
(-0.0010616139 0.0001219048 0)
(-0.0011184973 0.00012810386 0)
(-0.0011772847 0.00013383756 0)
(-0.0012378194 0.00013912996 0)
(-0.0012999516 0.00014400403 0)
(-0.0013635377 0.00014848147 0)
(-0.0014284401 0.00015258276 0)
(-0.0014945272 0.00015632712 0)
(-0.001561673 0.00015973252 0)
(-0.0016297566 0.00016281573 0)
(-0.0016986622 0.0001655923 0)
(-0.0017682786 0.00016807669 0)
(-0.0018384992 0.00017028225 0)
(-0.0019092212 0.00017222134 0)
(-0.0019803458 0.00017390533 0)
(-0.0020517779 0.00017534472 0)
(-0.0021234254 0.00017654916 0)
(-0.0021951997 0.00017752754 0)
(-0.0022670146 0.00017828801 0)
(-0.002338787 0.00017883809 0)
(-0.0024104361 0.00017918466 0)
(-0.0024818834 0.00017933406 0)
(-0.0025530525 0.0001792921 0)
(-0.0026238692 0.00017906411 0)
(-0.0026942609 0.00017865501 0)
(-0.0027641569 0.00017806929 0)
(-0.0028334879 0.00017731107 0)
(-0.0029021863 0.00017638416 0)
(-0.0029701857 0.00017529202 0)
(-0.0030374211 0.00017403786 0)
(-0.0031038287 0.00017262459 0)
(-0.0031693457 0.00017105491 0)
(-0.0032339103 0.00016933127 0)
(-0.0032974619 0.00016745592 0)
(-0.0033599405 0.00016543093 0)
(-0.0034212871 0.00016325818 0)
(-0.0034814434 0.00016093937 0)
(-0.003540352 0.00015847609 0)
(-0.0035979558 0.00015586974 0)
(-0.0036541987 0.00015312161 0)