/*--------------------------------*- C++ -*----------------------------------*\
| =========                 |                                                 |
| \\      /  F ield         | OpenFOAM: The Open Source CFD Toolbox           |
|  \\    /   O peration     | Version:  2406                                  |
|   \\  /    A nd           | Website:  www.openfoam.com                      |
|    \\/     M anipulation  |                                                 |
\*---------------------------------------------------------------------------*/
FoamFile
{
    version     2.0;
    format      ascii;
    arch        "LSB;label=32;scalar=64";
    class       volScalarField;
    location    "1797";
    object      T;
}
// * * * * * * * * * * * * * * * * * * * * * * * * * * * * * * * * * * * * * //

dimensions      [0 0 0 0 0 0 0];

internalField   nonuniform List<scalar> 
9800
(
1
1
1
1
1
1
1
1
1
1
1
1
1
1
1
1
1
1
1
1
1
1
1
1
1
1
1
1
1
1
1
1
1
1
1
1
1
1
1
1
1
1
1
1
1
1
1
1
1
1
1
1
1
1
1
1
1
1
1
1
1
1
1
1
1
1
1
1
1
1
1
1
1
1
1
1
1
1
1
1
1
1
1
1
1
1
1
1
1
1
1
1
1
1
1
1
1
1
1
1
1
1
1
1
1
1
1
1
1
1
1
1
1
1
1
1
1
1
1
1
1
1
1
1
1
1
1
1
1
1
1
1
1
1
1
1
1
1
1
1
1
1
1
1
1
1
1
1
1
1
1
1
1
1
1
1
1
1
1
1
1
1
1
1
1
1
1
1
1
1
1
1
1
1
1
1
1
1
1
1
1
1
1
1
1
1
1
1
1
1
1
1
1
1
1
1
1
1
1
1
1
1
1
1
1
1
1
1
1
1
1
1
1
1
1
1
1
1
1
1
1
1
1
1
1
1
1
1
1
1
1
1
1
1
1
1
1
1
1
1
1
1
1
1
1
1
1
1
1
1
1
1
1
1
1
1
1
1
1
1
1
1
1
1
1
1
1
1
1
1
1
1
1
1
1
1
1
1
1
1
1
1
1
1
1
1
1
1
1
1
1
1
1
1
1
1
1
1
1
1
1
1
1
1
1
1
1
1
1
1
1
1
1
1
1
1
1
1
1
1
1
1
1
1
1
1
1
1
1
1
1
1
1
1
1
1
1
1
1
1
1
1
1
1
1
1
1
1
1
1
1
1
1
1
1
1
1
1
1
1
1
1
1
1
1
1
1
1
1
1
1
1
1
1
1
1
1
1
1
1
1
1
1
1
1
1
1
1
1
1
1
1
1
1
1
1
1
1
1
1
1
1
1
1
1
1
1
1
1
1
1
1
1
1
1
1
1
1
1
1
1
1
1
1
1
1
1
1
1
1
1
1
1
1
1
1
1
1
1
1
1
1
1
1
1
1
1
1
1
1
1
1
1
1
1
1
1
1
1
1
1
1
1
1
1
1
1
1
1
1
1
1
1
1
1
1
1
1
1
1
1
1
1
1
1
1
1
1
1
1
1
1
1
1
1
1
1
1
1
1
1
1
1
1
1
1
1
1
1
1
1
1
1
1
1
1
1
1
1
1
1
1
1
1
1
1
1
1
1
1
1
1
1
1
1
1
1
1
1
1
1
1
1
1
1
1
1
1
1
1
1
1
1
1
1
1
1
1
1
1
1
1
1
1
1
1
1
1
1
1
1
1
1
1
1
1
1
1
1
1
1
1
1
1
1
1
1
1
1
1
1
1
1
1
1
1
1
1
1
1
1
1
1
1
1
1
1
1
1
1
1
1
1
1
1
1
1
1
1
1
1
1
1
1
1
1
1
1
1
1
1
1
1
1
1
1
1
1
1
1
1
1
1
1
1
1
1
1
1
1
1
1
1
1
1
1
1
1
1
1
1
1
1
1
1
1
1
1
1
1
1
1
1
1
1
1
1
1
1
1
1
1
1
1
1
1
1
1
1
1
1
1
1
1
1
1
1
1
1
1
1
1
1
1
1
1
1
1
1
1
1
1
1
1
1
1
1
1
1
1
1
1
1
1
1
1
1
1
1
1
1
1
1
1
1
1
1
1
1
1
1
1
1
1
1
1
1
1
1
1
1
1
1
1
1
1
1
1
1
1
1
1
1
1
1
1
1
1
1
1
1
1
1
1
1
1
1
1
1
1
1
1
1
1
1
1
1
1
1
1
1
1
1
1
1
1
1
1
1
1
1
1
1
1
1
1
1
1
1
1
1
1
1
1
1
1
1
1
1
1
1
1
1
1
1
1
1
1
1
1
1
1
1
1
1
1
1
1
1
1
1
1
1
1
1
1
1
1
1
1
1
1
1
1
1
1
1
1
1
1
1
1
1
1
1
1
1
1
1
1
1
1
1
1
1
1
1
1
1
1
1
1
1
1
1
1
1
1
1
1
1
1
1
1
1
1
1
1
1
1
1
1
1
1
1
1
1
1
1
1
1
1
1
1
1
1
1
1
1
1
1
1
1
1
1
1
1
1
1
1
1
1
1
1
1
1
1
1
1
1
1
1
1
1
1
1
1
1
1
1
1
1
1
1
1
1
1
1
1
1
1
1
1
1
1
1
1
1
1
1
1
1
1
1
1
1
1
1
1
1
1
1
1
1
1
1
1
1
1
1
1
1
1
1
1
1
1
1
1
1
1
1
1
1
1
1
1
1
1
1
1
1
1
1
1
1
1
1
1
1
1
1
1
1
1
1
1
1
1
1
1
1
1
1
1
1
1
1
1
1
1
1
1
1
1
1
1
1
1
1
1
1
1
1
1
1
1
1
1
1
1
1
1
1
1
1
1
1
1
1
1
1
1
1
1
1
1
1
1
1
1
1
1
1
1
1
1
1
1
1
1
1
1
1
1
1
1
1
1
1
1
1
1
1
1
1
1
1
1
1
1
1
1
1
1
1
1
1
1
1
1
1
1
1
1
1
1
1
1
1
1
1
1
1
1
1
1
1
1
1
1
1
1
1
1
1
1
1
1
1
1
1
1
1
1
1
1
1
1
1
1
1
1
1
1
1
1
1
1
1
1
1
1
1
1
1
1
1
1
1
1
1
1
1
1
1
1
1
1
1
1
1
1
1
1
1
1
1
1
1
1
1
1
1
1
1
1
1
1
1
1
1
1
1
1
1
1
1
1
1
1
1
1
1
1
1
1
1
1
1
1
1
1
1
1
1
1
1
1
1
1
1
1
1
1
1
1
1
1
1
1
1
1
1
1
1
1
1
1
1
1
1
1
1
1
1
1
1
1
1
1
1
1
1
1
1
1
1
1
1
1
1
1
1
1
1
1
1
1
1
1
1
1
1
1
1
1
1
1
1
1
1
1
1
1
1
1
1
1
1
1
1
1
1
1
1
1
1
1
1
1
1
1
1
1
1
1
1
1
1
1
1
1
1
1
1
1
1
1
1
1
1
1
1
1
1
1
1
1
1
1
1
1
1
1
1
1
1
1
1
1
1
1
1
1
1
1
1
1
1
1
1
1
1
1
1
1
1
1
1
1
1
1
1
1
1
1
1
1
1
1
1
1
1
1
1
1
1
1
1
1
1
1
1
1
1
1
1
1
1
1
1
1
1
1
1
1
1
1
1
1
1
1
1
1
1
1
1
1
1
1
1
1
1
1
1
1
1
1
1
1
1
1
1
1
1
1
1
1
1
1
1
1
1
1
1
1
1
1
1
1
1
1
1
1
1
1
1
1
1
1
1
1
1
1
1
1
1
1
1
1
1
1
1
1
1
1
1
1
1
1
1
1
1
1
1
1
1
1
1
1
1
1
1
1
1
1
1
1
1
1
1
1
1
1
1
1
1
1
1
1
1
1
1
1
1
1
1
1
1
1
1
1
1
1
1
1
1
1
1
1
1
1
1
1
1
1
1
1
1
1
1
1
1
1
1
1
1
1
1
1
1
1
1
1
1
1
1
1
1
1
1
1
1
1
1
1
1
1
1
1
1
1
1
1
1
1
1
1
1
1
1
1
1
1
1
1
1
1
1
1
1
1
1
1
1
1
1
1
1
1
1
1
1
1
1
1
1
1
1
1
1
1
1
1
1
1
1
1
1
1
1
1
1
1
1
1
1
1
1
1
1
1
1
1
1
1
1
1
1
1
1
1
1
1
1
1
1
1
1
1
1
1
1
1
1
1
1
1
1
1
1
1
1
1
1
1
1
1
1
1
1
1
1
1
1
1
1
1
1
1
1
1
1
1
1
1
1
1
1
1
1
1
1
1
1
1
1
1
1
1
1
1
1
1
1
1
1
1
1
1
1
1
1
1
1
1
1
1
1
1
1
1
1
1
1
1
1
1
1
1
1
1
1
1
1
1
1
1
1
1
1
1
1
1
1
1
1
1
1
1
1
1
1
1
1
1
1
1
1
1
1
1
1
1
1
1
1
1
1
1
1
1
1
1
1
1
1
1
1
1
1
1
1
1
1
1
1
1
1
1
1
1
1
1
1
1
1
1
1
1
1
1
1
1
1
1
1
1
1
1
1
1
1
1
1
1
1
1
1
1
1
1
1
1
1
1
1
1
1
1
1
1
1
1
1
1
1
1
1
1
1
1
1
1
1
1
1
1
1
1
1
1
1
1
1
1
1
1
1
1
1
1
1
1
1
1
1
1
1
1
1
1
1
1
1
1
1
1
1
1
1
1
1
1
1
1
1
1
1
1
1
1
1
1
1
1
1
1
1
1
1
1
1
1
1
1
1
1
1
1
1
1
1
1
1
1
1
1
1
1
1
1
1
1
1
1
1
1
1
1
1
1
1
1
1
1
1
1
1
1
1
1
1
1
1
1
1
1
1
1
1
1
1
1
1
1
1
1
1
1
1
1
1
1
1
1
1
1
1
1
1
1
1
1
1
1
1
1
1
1
1
1
1
1
1
1
1
1
1
1
1
1
1
1
1
1
1
1
1
1
1
1
1
1
1
1
1
1
1
1
1
1
1
1
1
1
1
1
1
1
1
1
1
1
1
1
1
1
1
1
1
1
1
1
1
1
1
1
1
1
1
1
1
1
1
1
1
1
1
1
1
1
1
1
1
1
1
1
1
1
1
1
1
1
1
1
1
1
1
1
1
1
1
1
1
1
1
1
1
1
1
1
1
1
1
1
1
1
1
1
1
1
1
1
1
1
1
1
1
1
1
1
1
1
1
1
1
1
1
1
1
1
1
1
1
1
1
1
1
1
1
1
1
1
1
1
1
1
1
1
1
1
1
1
1
1
1
1
1
1
1
1
1
1
1
1
1
1
1
1
1
1
1
1
1
1
1
1
1
1
1
1
1
1
1
1
1
1
1
1
1
1
1
1
1
1
1
1
1
1
1
1
1
1
1
1
1
1
1
1
1
1
1
1
1
1
1
1
1
1
1
1
1
1
1
1
1
1
1
1
1
1
1
1
1
1
1
1
1
1
1
1
1
1
1
1
1
1
1
1
1
1
1
1
1
1
1
1
1
1
1
1
1
1
1
1
1
1
1
1
1
1
1
1
1
1
1
1
1
1
1
1
1
1
1
1
1
1
1
1
1
1
1
1
1
1
1
1
1
1
1
1
1
1
1
1
1
1
1
1
1
1
1
1
1
1
1
1
1
1
1
1
1
1
1
1
1
1
1
1
1
1
1
1
1
1
1
1
1
1
1
1
1
1
1
1
1
1
1
1
1
1
1
1
1
1
1
1
1
1
1
1
1
1
1
1
1
1
1
1
1
1
1
1
1
1
1
1
1
1
1
1
1
1
1
1
1
1
1
1
1
1
1
1
1
1
1
1
1
1
1
1
1
1
1
1
1
1
1
1
1
1
1
1
1
1
1
1
1
0.99999999
0.99999999
0.99999999
0.99999999
0.99999999
0.99999999
0.99999999
0.99999999
0.99999999
0.99999999
0.99999998
0.99999998
0.99999998
0.99999998
0.99999998
0.99999998
0.99999998
0.99999998
0.99999998
0.99999998
0.99999998
0.99999998
0.99999998
0.99999998
0.99999998
0.99999998
0.99999998
0.99999998
0.99999998
0.99999998
0.99999998
0.99999998
0.99999998
0.99999998
0.99999998
0.99999999
0.99999999
0.99999999
0.99999999
0.99999999
0.99999999
0.99999999
0.99999999
0.99999999
0.99999999
0.99999999
0.99999999
0.99999999
0.99999999
0.99999999
0.99999999
0.99999999
0.99999999
0.99999999
0.99999999
0.99999999
0.99999999
0.99999999
0.99999999
0.99999999
0.99999999
0.99999999
0.99999999
0.99999999
0.99999999
0.99999999
0.99999999
0.99999999
0.99999999
0.99999999
0.99999999
1
1
1
1
1
1
1
1
1
1
1
1
1
1
1
1
1
1
1
1
1
1
1
1
1
1
1
1
1
1
1
1
1
1
1
1
1
1
1
1
1
1
1
1
1
1
1
1
1
1
1
1
1
1
1
1
1
1
1
1
1
1
1
1
1
1
1
1
1
1
1
1
1
1
1
1
1
1
1
1
1
1
1
1
1
1
1
1
1
1
1
1
1
1
1
1
1
1
1
1
1
1
1
1
1
1
1
1
1
1
1
1
1
1
1
1
1
1
1
0.99999281
0.99998587
0.99997943
0.99997349
0.9999679
0.99996255
0.99995741
0.99995249
0.99994783
0.99994348
0.9999395
0.99993593
0.99993281
0.99993018
0.99992804
0.9999264
0.99992524
0.99992453
0.99992425
0.99992436
0.99992482
0.99992559
0.99992662
0.99992788
0.99992932
0.99993093
0.99993266
0.99993449
0.99993639
0.99993835
0.99994034
0.99994236
0.99994438
0.99994639
0.99994839
0.99995037
0.99995232
0.99995423
0.99995609
0.99995792
0.99995969
0.99996141
0.99996308
0.9999647
0.99996626
0.99996777
0.99996922
0.99997061
0.99997196
0.99997325
0.99997448
0.99997567
0.99997681
0.99997789
0.99997893
0.99997993
0.99998088
0.99998179
0.99998265
0.99998348
0.99998427
0.99998503
0.99998574
0.99998643
0.99998708
0.9999877
0.9999883
0.99998886
0.9999894
0.99998991
0.9999904
0.99999087
0.99999131
0.99999174
0.99999214
0.99999252
0.99999289
0.99999323
0.99999356
0.99999388
0.99999418
0.99999447
0.99999474
0.999995
0.99999524
0.99999548
0.9999957
0.99999592
0.99999612
0.99999631
0.9999965
0.99999667
0.99999684
0.999997
0.99999715
0.99999729
0.99999743
0.99999756
0.99999768
0.9999978
0.99999791
0.99999802
0.99999812
0.99999822
0.99999831
0.9999984
0.99999848
0.99999856
0.99999863
0.9999987
0.99999877
0.99999884
0.9999989
0.99999896
0.99999901
0.99999906
0.99999911
0.99999916
0.9999992
0.99999925
0.99999929
0.99999933
0.99999936
0.9999994
0.99999943
0.99999946
0.99999949
0.99999952
0.99999954
0.99999957
0.99999959
0.99999961
0.99999963
0.99999965
0.99999967
0.99999969
0.99999971
0.99999972
0.99999974
0.99999975
0.99999977
0.99999978
0.99999979
0.9999998
0.99999981
0.99999982
0.99999983
0.99999984
0.99999985
0.99999986
0.99999987
0.99999987
0.99999988
0.99999989
0.99999989
0.9999999
0.9999999
0.99999991
0.99999991
0.99999992
0.99999992
0.99999993
0.99999993
0.99999993
0.99999994
0.99999994
0.99999994
0.99999995
0.99999995
0.99999995
0.99999995
0.99999995
0.99999996
0.99999996
0.99999996
0.99999996
0.99999996
0.99999997
0.99999997
0.99999997
0.99999997
0.99999997
0.99999997
0.99999997
0.99999998
0.99999998
0.99999998
0.99999998
0.99999998
0.99999998
0.99999998
0.99999998
0.99999998
0.99999998
0.99999998
0.99999998
0.99999999
0.99999999
0.99999999
0.99999999
0.46559545
0.51548092
0.56818757
0.6120641
0.64280796
0.66488387
0.68201611
0.69627274
0.70887992
0.72059139
0.73186506
0.74296421
0.75402182
0.76508371
0.77613909
0.78714322
0.79803424
0.8087451
0.8192116
0.82937741
0.83919653
0.84863416
0.85766628
0.86627865
0.8744653
0.88222712
0.88957025
0.89650487
0.90304401
0.90920261
0.91499683
0.92044347
0.92555952
0.93036188
0.93486718
0.93909155
0.94305062
0.94675941
0.95023232
0.95348311
0.9565249
0.95937019
0.96203086
0.96451819
0.96684289
0.9690151
0.9710444
0.97293986
0.97471006
0.97636305
0.97790646
0.97934744
0.98069271
0.98194862
0.98312108
0.98421566
0.98523757
0.98619169
0.98708258
0.98791449
0.98869142
0.98941708
0.99009494
0.99072822
0.99131996
0.99187295
0.99238981
0.99287299
0.99332476
0.99374722
0.99414234
0.99451197
0.99485779
0.99518141
0.9954843
0.99576783
0.99603329
0.99628186
0.99651466
0.99673272
0.996937
0.9971284
0.99730776
0.99747586
0.99763342
0.99778112
0.99791959
0.99804942
0.99817117
0.99828533
0.9983924
0.99849283
0.99858702
0.99867537
0.99875825
0.998836
0.99890893
0.99897735
0.99904154
0.99910175
0.99915824
0.99921123
0.99926094
0.99930757
0.99935131
0.99939233
0.99943081
0.9994669
0.99950074
0.99953247
0.99956222
0.99959012
0.99961627
0.99964078
0.99966376
0.99968529
0.99970547
0.99972437
0.99974208
0.99975868
0.99977422
0.99978877
0.9998024
0.99981516
0.9998271
0.99983828
0.99984874
0.99985854
0.9998677
0.99987627
0.99988429
0.99989179
0.9998988
0.99990536
0.99991149
0.99991722
0.99992258
0.99992759
0.99993227
0.99993664
0.99994073
0.99994455
0.99994812
0.99995145
0.99995456
0.99995747
0.99996019
0.99996273
0.9999651
0.99996731
0.99996938
0.99997131
0.99997311
0.9999748
0.99997637
0.99997784
0.99997922
0.9999805
0.9999817
0.99998282
0.99998387
0.99998485
0.99998576
0.99998662
0.99998742
0.99998816
0.99998886
0.99998952
0.99999013
0.99999071
0.99999124
0.99999175
0.99999222
0.99999266
0.99999307
0.99999346
0.99999383
0.99999417
0.99999449
0.99999479
0.99999507
0.99999534
0.99999559
0.99999582
0.99999604
0.99999625
0.99999645
0.99999664
0.99999681
0.99999697
0.99999713
0.99999728
0.99999742
0.99999755
0.99999767
0.99999779
0.9999979
0.99999801
0.99999811
0.99999821
6.7592471e-05
6.8372271e-05
8.9080988e-05
0.00011201851
0.014574747
0.03694566
0.062580392
0.090047125
0.11922146
0.14938884
0.17961007
0.20989275
0.24018559
0.27038706
0.30036344
0.32996856
0.35905984
0.38750946
0.41521085
0.44208143
0.46806246
0.49311704
0.51722702
0.54038951
0.56261334
0.58391592
0.60432045
0.62385376
0.64254457
0.66042226
0.67751601
0.69385432
0.70946464
0.72437332
0.73860561
0.75218571
0.7651369
0.77748169
0.78924192
0.80043886
0.81109335
0.82122582
0.83085635
0.8400047
0.84869032
0.85693232
0.8647495
0.87216029
0.87918272
0.88583442
0.89213258
0.8980939
0.9037346
0.90907038
0.91411641
0.91888731
0.92339715
0.92765945
0.93168714
0.93549263
0.93908775
0.94248381
0.94569157
0.94872128
0.95158268
0.95428502
0.95683708
0.95924718
0.9615232
0.96367261
0.96570246
0.96761944
0.96942985
0.97113965
0.97275448
0.97427964
0.97572016
0.97708078
0.97836595
0.97957989
0.98072658
0.98180977
0.98283299
0.98379957
0.98471267
0.98557525
0.9863901
0.98715987
0.98788704
0.98857397
0.98922286
0.98983582
0.99041481
0.9909617
0.99147824
0.99196609
0.99242683
0.99286194
0.99327281
0.99366076
0.99402704
0.99437284
0.99469927
0.99500739
0.99529818
0.9955726
0.99583154
0.99607584
0.9963063
0.99652367
0.99672867
0.99692198
0.99710423
0.99727604
0.99743798
0.99759058
0.99773437
0.99786983
0.99799742
0.99811759
0.99823073
0.99833725
0.99843751
0.99853187
0.99862066
0.99870418
0.99878275
0.99885664
0.99892611
0.99899143
0.99905282
0.99911052
0.99916473
0.99921567
0.99926351
0.99930845
0.99935065
0.99939027
0.99942746
0.99946238
0.99949514
0.99952589
0.99955475
0.99958182
0.99960721
0.99963103
0.99965337
0.99967433
0.99969398
0.99971241
0.99972969
0.99974589
0.99976109
0.99977533
0.99978869
0.99980121
0.99981296
0.99982397
0.99983429
0.99984398
0.99985306
0.99986157
0.99986956
0.99987705
0.99988409
0.99989068
0.99989687
0.99990268
0.99990814
0.99991326
0.99991807
0.99992259
0.99992683
0.99993082
0.99993457
0.9999381
0.99994141
0.99994453
0.99994747
0.99995024
0.99995284
0.99995529
0.99995761
0.99995979
0.99996184
0.99996379
0.99996562
0.99996735
0.99996899
0.99997054
0.999972
0.99997339
0.9999747
0.99997595
0.99997713
0.99997825
0.99997931
0.99998032
0.99998128
0.99998219
1.1689321e-08
9.1119632e-09
1.2312566e-08
1.835355e-08
1.9349937e-06
5.4228005e-06
1.0386492e-05
1.6887438e-05
2.5221654e-05
0.0017286
0.0068740306
0.015203311
0.026489758
0.040346989
0.056137226
0.073496194
0.092099931
0.11166649
0.131956
0.15276896
0.17394308
0.19534888
0.21688477
0.23847181
0.26004876
0.28156765
0.30298989
0.32428315
0.34541901
0.36637118
0.38711441
0.40762379
0.42787448
0.44784169
0.46750087
0.486828
0.50579996
0.52439487
0.5425924
0.56037411
0.57772363
0.59462683
0.61107195
0.62704961
0.64255279
0.6575768
0.67211916
0.68617946
0.69975922
0.71286174
0.72549193
0.73765608
0.74936177
0.76061764
0.77143325
0.78181891
0.79178557
0.80134468
0.81050804
0.81928773
0.827696
0.83574518
0.84344762
0.85081562
0.85786135
0.86459684
0.87103391
0.87718416
0.88305894
0.88866928
0.89402597
0.89913944
0.90401982
0.90867692
0.91312022
0.91735886
0.92140166
0.92525711
0.92893338
0.93243833
0.9357795
0.93896415
0.94199922
0.94489137
0.94764699
0.95027222
0.95277289
0.95515464
0.95742282
0.95958258
0.96163883
0.96359628
0.96545942
0.96723255
0.96891979
0.97052505
0.97205211
0.97350454
0.97488579
0.97619913
0.9774477
0.97863448
0.97976236
0.98083406
0.9818522
0.98281928
0.98373768
0.9846097
0.98543751
0.98622319
0.98696875
0.98767609
0.98834702
0.98898329
0.98958655
0.9901584
0.99070035
0.99121385
0.99170029
0.992161
0.99259722
0.99301018
0.99340102
0.99377085
0.99412071
0.99445161
0.99476451
0.99506031
0.99533989
0.99560409
0.99585369
0.99608944
0.99631208
0.99652228
0.99672069
0.99690795
0.99708465
0.99725134
0.99740856
0.99755683
0.99769663
0.99782842
0.99795264
0.99806971
0.99818002
0.99828395
0.99838186
0.99847408
0.99856093
0.99864271
0.99871972
0.99879223
0.99886049
0.99892476
0.99898525
0.99904219
0.99909579
0.99914625
0.99919373
0.99923843
0.99928051
0.99932011
0.99935739
0.99939249
0.99942553
0.99945664
0.99948593
0.99951352
0.9995395
0.99956398
0.99958704
0.99960877
0.99962925
0.99964855
0.99966675
0.99968392
0.99970011
0.99971539
0.99972981
0.99974343
0.99975629
0.99976843
0.99977991
0.99979076
0.99980103
0.99981074
0.99981993
0.99982863
0.99983688
0.99984469
0.99985211
0.99985914
0.99986581
0.99987214
0.99987816
0.99988389
0.99988933
0.9998945
0.99989943
0.99990411
3.4239461e-12
5.319323e-12
1.8231948e-11
7.5825969e-11
4.1048485e-10
1.1519999e-09
2.519039e-09
4.4481106e-09
7.2502204e-09
3.0909379e-07
1.3255612e-06
3.2773508e-06
6.3598457e-06
0.00032341595
0.0016475614
0.0040538771
0.0075531939
0.012119516
0.017712062
0.024291139
0.031828253
0.040311375
0.049723782
0.059872079
0.07073364
0.082291442
0.094530917
0.10743723
0.12099309
0.13517726
0.14996348
0.16532012
0.1812101
0.19759125
0.21441698
0.23163708
0.24919858
0.26704673
0.28512589
0.30338041
0.32175545
0.34019765
0.35865574
0.37708099
0.39542761
0.41365298
0.43171784
0.44958641
0.46722637
0.48460885
0.50170834
0.51850257
0.53497236
0.55110144
0.56687629
0.58228592
0.59732167
0.61197705
0.62624754
0.64013035
0.65362433
0.66672973
0.67944808
0.69178203
0.70373522
0.71531214
0.72651801
0.73735872
0.74784068
0.75797073
0.76775613
0.77720439
0.78632329
0.79512079
0.80360496
0.81178398
0.81966605
0.8272594
0.83457223
0.8416127
0.8483889
0.85490883
0.86118038
0.86721133
0.87300933
0.87858187
0.88393632
0.88907986
0.89401954
0.89876223
0.90331463
0.90768329
0.91187457
0.91589468
0.91974963
0.92344531
0.92698739
0.93038142
0.93363277
0.93674665
0.93972811
0.94258206
0.94531325
0.94792627
0.9504256
0.95281556
0.95510031
0.95728392
0.9593703
0.96136324
0.96326642
0.96508336
0.96681752
0.96847219
0.97005059
0.9715558
0.97299083
0.97435855
0.97566176
0.97690315
0.97808532
0.97921077
0.98028192
0.98130112
0.98227059
0.98319252
0.98406899
0.98490201
0.98569351
0.98644537
0.98715937
0.98783724
0.98848064
0.98909116
0.98967033
0.99021964
0.99074048
0.99123422
0.99170215
0.99214552
0.99256553
0.99296332
0.99333999
0.99369659
0.99403411
0.99435353
0.99465576
0.99494167
0.9952121
0.99546785
0.99570968
0.99593833
0.99615448
0.99635879
0.9965519
0.99673439
0.99690685
0.9970698
0.99722378
0.99736926
0.9975067
0.99763656
0.99775925
0.99787517
0.99798469
0.99808817
0.99818594
0.99827834
0.99836565
0.99844817
0.99852618
0.99859992
0.99866963
0.99873556
0.99879791
0.99885689
0.9989127
0.99896551
0.9990155
0.99906283
0.99910765
0.99915012
0.99919035
0.9992285
0.99926466
0.99929897
0.99933153
0.99936243
0.99939177
0.99941965
0.99944615
0.99947134
0.9994953
0.99951811
0.99953982
0.99956049
0.99958019
0.99959896
0.99961686
0.99963391
2.3557017e-14
7.9032361e-14
2.4757204e-13
6.92132e-13
1.7811162e-12
4.3085766e-12
1.0186113e-11
2.4583259e-11
6.4464878e-11
2.0437024e-10
5.7420205e-10
1.5385799e-09
2.869253e-09
9.6603644e-08
4.6195212e-07
1.1609977e-06
2.2236487e-06
3.6647322e-06
5.4928094e-06
7.7161827e-06
1.0347143e-05
1.3408159e-05
5.1439486e-05
0.00044036077
0.0012401883
0.0025186249
0.0043497451
0.0068124727
0.0099889373
0.013962777
0.01881745
0.024634609
0.031341601
0.038920251
0.047369477
0.056678339
0.066826763
0.077786446
0.089521859
0.10199135
0.1151483
0.12894219
0.14331967
0.15822554
0.17360363
0.18939758
0.20555157
0.22201085
0.23872228
0.25563466
0.27269909
0.28986916
0.30710113
0.32435402
0.34158963
0.35877261
0.37587036
0.39285302
0.40969337
0.42636672
0.44285084
0.45912578
0.4751738
0.49097923
0.50652832
0.52180912
0.53681139
0.55152643
0.56594698
0.58006712
0.59388215
0.6073885
0.62058362
0.63346591
0.6460346
0.65828971
0.67023195
0.68186268
0.6931838
0.70419775
0.71490739
0.725316
0.73542724
0.74524504
0.75477364
0.76401751
0.77298134
0.78166996
0.7900884
0.79824178
0.80613534
0.8137744
0.82116434
0.82831059
0.83521861
0.84189388
0.84834188
0.8545681
0.860578
0.86637702
0.87197057
0.87736401
0.88256267
0.88757181
0.89239665
0.89704233
0.90151395
0.90581651
0.90995496
0.91393418
0.91775894
0.92143395
0.92496386
0.92835321
0.93160645
0.93472797
0.93772206
0.94059292
0.94334467
0.94598134
0.94850687
0.95092511
0.95323983
0.9554547
0.95757331
0.95959917
0.96153568
0.96338616
0.96515387
0.96684194
0.96845344
0.96999136
0.97145859
0.97285795
0.97419215
0.97546386
0.97667564
0.97782997
0.97892927
0.97997587
0.98097202
0.98191989
0.9828216
0.98367918
0.98449459
0.98526972
0.98600639
0.98670635
0.98737131
0.98800287
0.98860261
0.98917202
0.98971255
0.99022557
0.99071243
0.99117438
0.99161265
0.9920284
0.99242276
0.99279678
0.99315149
0.99348787
0.99380685
0.99410931
0.9943961
0.99466804
0.99492588
0.99517038
0.99540222
0.99562208
0.99583058
0.99602832
0.99621588
0.99639381
0.99656261
0.99672278
0.99687478
0.99701906
0.99715603
0.99728609
0.99740962
0.99752697
0.99763847
0.99774446
0.99784522
0.99794106
0.99803222
0.99811898
0.99820158
0.99828023
0.99835516
0.99842657
0.99849465
0.99855957
0.99862152
0.99868064
0.99873708
0.99879098
0.99884248
0.99889158
3.7597218e-15
1.3899873e-14
4.465324e-14
1.2166347e-13
2.9097028e-13
6.2933255e-13
1.2617081e-12
2.3947242e-12
4.3858522e-12
7.8952534e-12
1.4240264e-11
2.6351482e-11
5.1715624e-11
1.1441731e-10
2.5338426e-10
5.1225234e-10
9.421475e-10
1.4298635e-09
2.0247713e-09
2.737084e-09
3.577657e-09
4.5616803e-09
1.026485e-08
6.0636991e-08
1.8499752e-07
4.1007121e-07
7.6354212e-07
1.2758651e-06
1.9813219e-06
2.9187159e-06
4.1318781e-06
5.6833052e-06
0.00020131047
0.00070271617
0.0015902095
0.0029469492
0.0048572525
0.0073978289
0.010589031
0.014471117
0.019074298
0.024418872
0.030515611
0.037366379
0.044964897
0.053297609
0.062344596
0.072080486
0.082475349
0.093495558
0.10510459
0.11726375
0.12993285
0.14307076
0.15663596
0.17058693
0.1848826
0.19948257
0.21434746
0.22943904
0.24472045
0.26015632
0.27571281
0.29135775
0.30706062
0.32279258
0.3385265
0.3542369
0.36989997
0.3854935
0.40099683
0.41639084
0.43165786
0.44678164
0.46174727
0.47654112
0.4911508
0.50556509
0.51977385
0.53376801
0.54753948
0.56108112
0.57438664
0.58745061
0.60026834
0.61283591
0.62515005
0.63720814
0.64900816
0.66054864
0.67182864
0.68284769
0.69360578
0.70410332
0.71434109
0.72432025
0.73404227
0.74350896
0.75272238
0.76168487
0.77039901
0.77886758
0.78709358
0.79508019
0.80283076
0.81034878
0.81763788
0.82470182
0.83154446
0.83816977
0.84458179
0.85078465
0.85678253
0.86257967
0.86818037
0.87358893
0.87880971
0.88384708
0.88870543
0.89338913
0.89790259
0.90225017
0.90643625
0.91046517
0.91434125
0.91806879
0.92165204
0.92509522
0.92840252
0.93157805
0.93462589
0.93755008
0.94035457
0.94304326
0.94562001
0.94808857
0.95045267
0.95271593
0.95488192
0.95695412
0.95893594
0.96083073
0.96264174
0.96437215
0.96602505
0.96760346
0.96911032
0.97054849
0.97192073
0.97322975
0.97447815
0.97566847
0.97680316
0.9778846
0.97891508
0.97989681
0.98083195
0.98172256
0.98257063
0.98337808
0.98414676
0.98487845
0.98557487
0.98623765
0.98686838
0.98746857
0.98803967
0.98858309
0.98910015
0.98959213
0.99006026
0.99050571
0.9909296
0.99133299
0.9917169
0.99208232
0.99243017
0.99276134
0.99307667
0.99337697
0.993663
0.9939355
0.99419516
0.99444264
0.99467857
0.99490354
0.99511812
0.99532286
0.99551825
0.99570478
0.99588291
0.99605307
0.99621568
0.99637111
0.99651973
0.99666188
0.99679789
0.99692806
0.99705268
0.99717171
3.4879225e-17
1.1103337e-16
3.0864015e-16
7.2434482e-16
1.4893802e-15
2.770529e-15
4.7828692e-15
7.8209557e-15
1.2317912e-14
1.8950358e-14
2.8825092e-14
4.3816864e-14
6.7165277e-14
1.0434187e-13
1.6230595e-13
2.4791581e-13
3.6571936e-13
4.9943366e-13
6.8200576e-13
9.0128984e-13
1.1392877e-12
1.417894e-12
2.5303246e-12
1.0758364e-11
3.2445007e-11
7.4187789e-11
1.4338969e-10
2.487478e-10
4.006846e-10
6.1175585e-10
8.9705895e-10
1.2771009e-09
1.7691771e-08
7.162459e-08
1.8734575e-07
3.9259522e-07
7.1966951e-07
1.0036135e-05
0.00010389828
0.00032841351
0.00073617381
0.0013849915
0.0023286551
0.0036140461
0.0052895044
0.0073992912
0.0099827604
0.013073795
0.016700483
0.020885009
0.025643706
0.030987237
0.036920884
0.043444911
0.050554974
0.058242562
0.066495443
0.075298122
0.084632271
0.094477157
0.10481004
0.11560652
0.12684093
0.13848659
0.15051611
0.16290167
0.1756152
0.18862862
0.20191398
0.21544362
0.22919033
0.24312743
0.25722886
0.27146929
0.28582413
0.30026966
0.31478299
0.32934213
0.34392603
0.35851453
0.37308844
0.38762948
0.40212033
0.41654456
0.43088669
0.4451321
0.45926709
0.47327878
0.48715515
0.500885
0.51445792
0.52786425
0.54109512
0.55414233
0.5669984
0.57965651
0.59211049
0.6043548
0.61638446
0.6281951
0.63978288
0.65114448
0.66227709
0.67317837
0.68384645
0.69427988
0.70447764
0.7144391
0.72416401
0.73365247
0.74290493
0.75192215
0.76070519
0.76925542
0.77757445
0.78566417
0.79352669
0.80116436
0.80857971
0.81577551
0.82275465
0.82952025
0.83607553
0.84242389
0.84856883
0.85451398
0.86026308
0.86581994
0.87118848
0.87637267
0.88137654
0.88620419
0.89085975
0.89534738
0.89967127
0.90383561
0.90784461
0.91170247
0.9154134
0.91898157
0.92241114
0.92570624
0.92887096
0.93190936
0.93482544
0.93762316
0.94030642
0.94287907
0.94534488
0.94770757
0.94997078
0.95213809
0.95421298
0.95619889
0.95809914
0.959917
0.96165564
0.96331817
0.9649076
0.96642684
0.96787875
0.96926608
0.97059152
0.97185764
0.97306696
0.97422191
0.97532482
0.97637797
0.97738352
0.9783436
0.97926023
0.98013535
0.98097086
0.98176855
0.98253016
0.98325737
0.98395176
0.98461487
0.98524818
0.9858531
0.98643096
0.98698307
0.98751066
0.9880149
0.98849693
0.98895782
0.9893986
0.98982024
0.99022367
0.99060979
0.99097943
0.9913334
0.99167245
0.9919973
0.99230864
0.99260711
0.99289332
0.99316784
0.99343123
0.99368328
1.3464126e-19
3.1910383e-19
7.1114057e-19
1.3761114e-18
2.379004e-18
3.7799576e-18
5.6470802e-18
8.07533e-18
1.1208747e-17
1.5267378e-17
2.0582106e-17
2.7639186e-17
3.7126999e-17
4.9945531e-17
6.7061139e-17
8.9281945e-17
1.16918e-16
1.4908516e-16
1.9060532e-16
2.4015565e-16
3.0883246e-16
3.7777525e-16
6.1281949e-16
2.1014361e-15
6.0544242e-15
1.3874441e-14
2.7275996e-14
4.8416763e-14
8.0040157e-14
1.2563441e-13
1.8961337e-13
2.7790603e-13
1.902558e-12
8.1376496e-12
2.354658e-11
5.4301592e-11
1.0850708e-10
9.0549559e-10
8.9556971e-09
3.3419009e-08
8.6459697e-08
1.8420843e-07
9.8991203e-06
5.0174349e-05
0.00014171001
0.00031025485
0.00058503856
0.00099581689
0.0015754716
0.002357889
0.0033771369
0.0046667075
0.0062588503
0.0081840051
0.010470337
0.013143372
0.016225726
0.019736927
0.02369331
0.028107981
0.03299084
0.038348653
0.044185158
0.050501205
0.057294922
0.064561891
0.072295338
0.080486331
0.089123981
0.098195637
0.10768708
0.11758271
0.12786575
0.13851838
0.14952194
0.16085704
0.17250377
0.18444177
0.19665039
0.20910879
0.22179606
0.23469128
0.24777366
0.26102258
0.27441764
0.2879388
0.30156635
0.31528099
0.3290639
0.34289674
0.35676169
0.37064149
0.38451944
0.39837946
0.41220604
0.42598432
0.43970004
0.45333959
0.46688999
0.4803389
0.49367461
0.50688604
0.51996276
0.53289494
0.54567337
0.55828946
0.5707352
0.58300319
0.5950866
0.60697914
0.61867512
0.63016936
0.64145721
0.65253453
0.66339769
0.67404355
0.68446941
0.69467305
0.70465268
0.71440693
0.72393483
0.73323583
0.74230972
0.75115666
0.75977716
0.76817204
0.77634245
0.78428982
0.79201586
0.79952254
0.80681208
0.81388693
0.82074974
0.82740337
0.83385088
0.84009548
0.84614052
0.85198953
0.85764613
0.86311408
0.86839722
0.87349948
0.87842487
0.88317746
0.88776137
0.89218077
0.89643984
0.90054279
0.90449385
0.90829722
0.91195711
0.91547773
0.91886323
0.92211776
0.9252454
0.92825022
0.93113621
0.93390733
0.93656745
0.9391204
0.94156993
0.94391972
0.94617337
0.94833441
0.95040629
0.95239236
0.95429592
0.95612015
0.95786816
0.95954297
0.96114752
0.96268465
0.96415713
0.96556764
0.96691874
0.96821296
0.96945271
0.97064031
0.97177803
0.97286803
0.97391241
0.97491317
0.97587225
0.97679152
0.97767275
0.97851766
0.9793279
0.98010503
0.98085057
0.98156595
0.98225254
0.98291167
0.98354457
0.98415244
0.9847364
0.98529754
0.98583687
0.98635533
0.98685395
0.98733204
4.219792e-22
6.4276443e-22
1.0579307e-21
1.6036523e-21
2.2575302e-21
3.0066343e-21
3.8513995e-21
4.8080445e-21
5.9093422e-21
7.2054883e-21
8.7658689e-21
1.0681249e-20
1.3064365e-20
1.6044721e-20
1.9752589e-20
2.4301168e-20
2.9774369e-20
3.6274929e-20
4.4491883e-20
5.4544467e-20
6.9261337e-20
8.5505044e-20
1.3284483e-19
3.973394e-19
1.095126e-18
2.501308e-18
4.9796057e-18
9.0182933e-18
1.5273972e-17
2.4625231e-17
3.8238452e-17
5.770513e-17
2.4116752e-16
1.008402e-15
3.1202017e-15
7.7683158e-15
1.6701698e-14
9.6740752e-14
8.7996688e-13
3.6908171e-12
1.0711603e-11
2.5293305e-11
8.2920073e-10
4.785685e-09
1.5654509e-08
3.9008422e-08
1.6453382e-06
1.0999003e-05
3.5143839e-05
8.3828133e-05
0.00016936611
0.00030599681
0.00051057576
0.00080202712
0.0012010332
0.0017296789
0.0024110712
0.0032689495
0.0043273005
0.0056099881
0.0071404078
0.0089411723
0.011033831
0.013438626
0.016174287
0.019257863
0.022704589
0.026527788
0.030738806
0.035346972
0.04035959
0.045781945
0.051617342
0.057867151
0.064530871
0.071606208
0.07908916
0.08697411
0.095253927
0.10392007
0.11296268
0.12237072
0.13213206
0.14223355
0.15266121
0.16340025
0.17443521
0.18575004
0.19732822
0.20915281
0.22120654
0.23347194
0.24593133
0.25856698
0.2713611
0.28429596
0.29735391
0.31051745
0.32376929
0.33709237
0.35046993
0.36388554
0.3773231
0.39076694
0.4042018
0.41761285
0.43098576
0.44430668
0.45756226
0.47073969
0.48382668
0.49681151
0.50968299
0.52243052
0.53504404
0.54751409
0.55983175
0.57198869
0.58397714
0.59578989
0.60742031
0.61886229
0.63011029
0.6411593
0.65200483
0.66264291
0.67307007
0.68328333
0.6932802
0.70305863
0.71261704
0.72195426
0.73106957
0.73996261
0.74863343
0.75708244
0.7653104
0.77331839
0.78110782
0.78868038
0.79603806
0.80318308
0.81011793
0.8168453
0.82336812
0.82968948
0.83581266
0.84174109
0.84747835
0.85302814
0.85839428
0.86358067
0.86859131
0.87343026
0.87810164
0.8826096
0.88695835
0.8911521
0.89519506
0.89909147
0.90284553
0.90646145
0.90994338
0.91329547
0.91652181
0.91962644
0.92261336
0.92548651
0.92824974
0.93090686
0.9334616
0.93591762
0.93827849
0.94054771
0.94272869
0.94482475
0.94683915
0.94877502
0.95063545
0.9524234
0.95414177
0.95579335
0.95738086
0.95890692
0.96037406
0.96178472
0.96314127
0.96444597
0.96570101
0.96690849
0.96807042
0.96918873
0.97026528
0.97130184
0.97230008
0.97326163
0.97418802
0.97508066
0.97594116
0.97676805
1.6167685e-24
1.2774019e-24
1.3779787e-24
1.5206912e-24
1.6634281e-24
1.8018396e-24
1.9420642e-24
2.0938787e-24
2.2684422e-24
2.4778291e-24
2.7352989e-24
3.0557383e-24
3.4559072e-24
3.9542067e-24
4.5699893e-24
5.3235634e-24
6.2387735e-24
7.3560032e-24
8.779796e-24
1.0575731e-23
1.3423584e-23
1.6689859e-23
2.5235435e-23
6.8213368e-23
1.81947e-22
4.1671861e-22
8.4393426e-22
1.5655046e-21
2.7262049e-21
4.5298994e-21
7.2606758e-21
1.1318347e-20
3.4275637e-20
1.3295165e-19
4.2886817e-19
1.1446109e-18
2.7002508e-18
1.2587809e-17
1.0131616e-16
4.6416902e-16
1.5042729e-15
3.9748308e-15
8.0616619e-14
5.0862282e-13