/*--------------------------------*- C++ -*----------------------------------*\
| =========                 |                                                 |
| \\      /  F ield         | OpenFOAM: The Open Source CFD Toolbox           |
|  \\    /   O peration     | Version:  2406                                  |
|   \\  /    A nd           | Website:  www.openfoam.com                      |
|    \\/     M anipulation  |                                                 |
\*---------------------------------------------------------------------------*/
FoamFile
{
    version     2.0;
    format      ascii;
    arch        "LSB;label=32;scalar=64";
    class       volVectorField;
    location    "1797";
    object      U;
}
// * * * * * * * * * * * * * * * * * * * * * * * * * * * * * * * * * * * * * //

dimensions      [0 1 -1 0 0 0 0];

internalField   nonuniform List<vector> 
9800
(
(-0.0021877497 0.0021182216 0)
(-0.0077298675 0.0016922639 0)
(-0.010611282 0.00088032628 0)
(-0.011090737 0.00022194261 0)
(-0.0097579974 -0.00026404628 0)
(-0.0072981589 -0.0005675278 0)
(-0.0043047171 -0.00069570129 0)
(-0.001229558 -0.00069795133 0)
(0.0016444617 -0.00062716929 0)
(0.0041760078 -0.00052560557 0)
(0.0063148487 -0.00042028247 0)
(0.0080642885 -0.00032415509 0)
(0.0094590863 -0.00024235906 0)
(0.010545953 -0.00017582453 0)
(0.011373447 -0.00012332683 0)
(0.011986959 -8.2781462e-05 0)
(0.012426514 -5.1955317e-05 0)
(0.012726159 -2.8803813e-05 0)
(0.012914202 -1.1597063e-05 0)
(0.013013825 1.0643975e-06 0)
(0.013043823 1.0274922e-05 0)
(0.013019374 1.6857838e-05 0)
(0.012952717 2.1451652e-05 0)
(0.012853649 2.4558056e-05 0)
(0.012729976 2.6559067e-05 0)
(0.012587904 2.7740063e-05 0)
(0.012432361 2.8315482e-05 0)
(0.012267255 2.8447259e-05 0)
(0.012095675 2.8257704e-05 0)
(0.011920059 2.7839193e-05 0)
(0.011742315 2.7261456e-05 0)
(0.011563934 2.6577e-05 0)
(0.011386068 2.5825183e-05 0)
(0.011209598 2.5035304e-05 0)
(0.011035192 2.422897e-05 0)
(0.010863343 2.3421908e-05 0)
(0.010694411 2.2625364e-05 0)
(0.010528646 2.1847184e-05 0)
(0.010366215 2.1092645e-05 0)
(0.010207218 2.0365108e-05 0)
(0.010051703 1.9666512e-05 0)
(0.0098996813 1.8997758e-05 0)
(0.0097511312 1.8359002e-05 0)
(0.0096060098 1.7749877e-05 0)
(0.0094642573 1.7169661e-05 0)
(0.0093258016 1.6617401e-05 0)
(0.0091905619 1.6092006e-05 0)
(0.0090584516 1.5592315e-05 0)
(0.0089293804 1.5117138e-05 0)
(0.0088032557 1.4665294e-05 0)
(0.008679984 1.4235633e-05 0)
(0.0085594719 1.3827042e-05 0)
(0.0084416266 1.3438462e-05 0)
(0.0083263564 1.3068884e-05 0)
(0.0082135714 1.2717351e-05 0)
(0.0081031831 1.2382961e-05 0)
(0.0079951054 1.2064858e-05 0)
(0.0078892542 1.1762235e-05 0)
(0.0077855476 1.1474326e-05 0)
(0.0076839059 1.1200404e-05 0)
(0.007584252 1.0939777e-05 0)
(0.007486511 1.0691789e-05 0)
(0.0073906102 1.045581e-05 0)
(0.0072964796 1.0231242e-05 0)
(0.0072040514 1.0017509e-05 0)
(0.0071132601 9.8140614e-06 0)
(0.0070240427 9.6203706e-06 0)
(0.0069363382 9.4359288e-06 0)
(0.0068500884 9.2602488e-06 0)
(0.006765237 9.0928615e-06 0)
(0.00668173 8.9333165e-06 0)
(0.0065995157 8.7811808e-06 0)
(0.0065185446 8.636038e-06 0)
(0.0064387692 8.4974888e-06 0)
(0.0063601442 8.365149e-06 0)
(0.0062826265 8.2386504e-06 0)
(0.0062061748 8.1176393e-06 0)
(0.0061307499 8.0017762e-06 0)
(0.0060563145 7.8907365e-06 0)
(0.0059828331 7.7842089e-06 0)
(0.0059102722 7.6818957e-06 0)
(0.0058385999 7.5835131e-06 0)
(0.0057677863 7.4887888e-06 0)
(0.005697803 7.3974645e-06 0)
(0.0056286231 7.3092927e-06 0)
(0.0055602216 7.2240382e-06 0)
(0.0054925748 7.1414768e-06 0)
(0.0054256604 7.0613945e-06 0)
(0.0053594579 6.9835887e-06 0)
(0.0052939478 6.9078663e-06 0)
(0.0052291122 6.8340442e-06 0)
(0.0051649341 6.7619496e-06 0)
(0.0051013982 6.6914175e-06 0)
(0.0050384901 6.6222938e-06 0)
(0.0049761965 6.5544311e-06 0)
(0.0049145053 6.4876919e-06 0)
(0.0048534055 6.4219444e-06 0)
(0.0047928869 6.3570662e-06 0)
(0.0047329404 6.2929403e-06 0)
(0.0046735577 6.2294596e-06 0)
(0.0046147315 6.1665219e-06 0)
(0.0045564553 6.104033e-06 0)
(0.0044987233 6.0419033e-06 0)
(0.0044415304 5.9800507e-06 0)
(0.0043848724 5.9183975e-06 0)
(0.0043287456 5.8568744e-06 0)
(0.004273147 5.7954153e-06 0)
(0.0042180742 5.7339619e-06 0)
(0.0041635254 5.6724581e-06 0)
(0.0041094992 5.6108549e-06 0)
(0.0040559947 5.5491064e-06 0)
(0.0040030117 5.4871738e-06 0)
(0.0039505501 5.4250212e-06 0)
(0.0038986103 5.3626184e-06 0)
(0.0038471931 5.2999384e-06 0)
(0.0037962997 5.2369581e-06 0)
(0.0037459314 5.1736583e-06 0)
(0.00369609 5.1100245e-06 0)
(0.0036467772 5.0460444e-06 0)
(0.0035979953 4.9817124e-06 0)
(0.0035497464 4.9170233e-06 0)
(0.0035020332 4.8519778e-06 0)
(0.0034548581 4.7865769e-06 0)
(0.0034082237 4.7208266e-06 0)
(0.0033621329 4.654734e-06 0)
(0.0033165884 4.5883117e-06 0)
(0.0032715929 4.5215728e-06 0)
(0.0032271494 4.454535e-06 0)
(0.0031832606 4.3872159e-06 0)
(0.0031399292 4.3196372e-06 0)
(0.0030971579 4.2518213e-06 0)
(0.0030549492 4.1837942e-06 0)
(0.0030133057 4.1155835e-06 0)
(0.0029722295 4.0472182e-06 0)
(0.002931723 3.9787297e-06 0)
(0.0028917881 3.9101498e-06 0)
(0.0028524266 3.8415121e-06 0)
(0.0028136403 3.7728517e-06 0)
(0.0027754304 3.7042042e-06 0)
(0.0027377982 3.6356084e-06 0)
(0.0027007446 3.5671019e-06 0)
(0.0026642702 3.4987251e-06 0)
(0.0026283756 3.4305172e-06 0)
(0.0025930608 3.3625194e-06 0)
(0.0025583256 3.294772e-06 0)
(0.0025241695 3.2273181e-06 0)
(0.0024905919 3.1601991e-06 0)
(0.0024575915 3.0934589e-06 0)
(0.0024251669 3.0271389e-06 0)
(0.0023933164 2.9612828e-06 0)
(0.0023620378 2.8959322e-06 0)
(0.0023313286 2.8311322e-06 0)
(0.0023011861 2.7669239e-06 0)
(0.002271607 2.7033529e-06 0)
(0.0022425878 2.6404596e-06 0)
(0.0022141246 2.5782891e-06 0)
(0.0021862131 2.5168817e-06 0)
(0.0021588487 2.4562817e-06 0)
(0.0021320262 2.3965294e-06 0)
(0.0021057404 2.3376686e-06 0)
(0.0020799854 2.2797397e-06 0)
(0.0020547551 2.2227856e-06 0)
(0.0020300429 2.1668467e-06 0)
(0.0020058419 2.111965e-06 0)
(0.0019821447 2.058181e-06 0)
(0.0019589437 2.0055375e-06 0)
(0.0019362307 1.9540757e-06 0)
(0.0019139973 1.9038383e-06 0)
(0.0018922346 1.8548673e-06 0)
(0.0018709333 1.8072065e-06 0)
(0.0018500837 1.7608999e-06 0)
(0.0018296756 1.7159943e-06 0)
(0.0018096985 1.6725375e-06 0)
(0.0017901413 1.6305808e-06 0)
(0.0017709926 1.5901781e-06 0)
(0.0017522403 1.5513883e-06 0)
(0.0017338719 1.5142755e-06 0)
(0.0017158742 1.478912e-06 0)
(0.0016982335 1.4453787e-06 0)
(0.0016809351 1.4137694e-06 0)
(0.0016639637 1.3841937e-06 0)
(0.0016473029 1.3567818e-06 0)
(0.001630935 1.331691e-06 0)
(0.0016148411 1.3091151e-06 0)
(0.0015990001 1.2892983e-06 0)
(0.001583389 1.2725585e-06 0)
(0.0015679813 1.2593318e-06 0)
(0.0015527465 1.2502574e-06 0)
(0.0015376477 1.2463589e-06 0)
(0.0015226386 1.2494288e-06 0)
(0.0015076577 1.2628568e-06 0)
(0.0014926176 1.2934021e-06 0)
(0.0014773853 1.3548051e-06 0)
(0.0014617455 1.4749375e-06 0)
(0.0014453247 1.7120762e-06 0)
(0.0014274718 2.1903857e-06 0)
(0.0014072089 3.1051704e-06 0)
(0.0013827733 4.6041843e-06 0)
(0.0013469219 8.0172389e-06 0)
(0.0012929528 1.8917546e-05 0)
(-0.0033237994 0.0093676818 0)
(-0.010658181 0.0074189208 0)
(-0.011580305 0.0023725898 0)
(-0.0089559735 -0.0013200607 0)
(-0.0044445382 -0.0037491622 0)
(0.00095054264 -0.0050641425 0)
(0.0065373715 -0.0054747722 0)
(0.011872021 -0.0052906505 0)
(0.016713543 -0.0047785812 0)
(0.020959294 -0.0041236212 0)
(0.024587692 -0.0034415447 0)
(0.02762187 -0.0027966782 0)
(0.030109793 -0.0022203423 0)
(0.032110419 -0.0017234892 0)
(0.033685255 -0.0013054978 0)
(0.034893734 -0.00095989613 0)
(0.035790796 -0.00067777891 0)
(0.036425757 -0.00044973492 0)
(0.036841977 -0.00026685624 0)
(0.037077 -0.00012119726 0)
(0.037162962 -5.962646e-06 0)
(0.03712724 8.4459578e-05 0)
(0.036992917 0.00015478974 0)
(0.036779369 0.00020895341 0)
(0.036502746 0.00025015459 0)
(0.036176455 0.00028098073 0)
(0.035811592 0.00030351722 0)
(0.035417308 0.00031944557 0)
(0.035001127 0.00033012223 0)
(0.034569207 0.00033664176 0)
(0.034126569 0.00033988737 0)
(0.033677285 0.00034057136 0)
(0.033224643 0.00033926742 0)
(0.032771276 0.00033643677 0)
(0.032319283 0.00033244927 0)
(0.031870316 0.00032760057 0)
(0.031425666 0.00032212611 0)
(0.030986326 0.00031621258 0)
(0.030553047 0.00031000721 0)
(0.030126385 0.0003036255 0)
(0.029706737 0.0002971574 0)
(0.029294372 0.00029067242 0)
(0.028889459 0.0002842238 0)
(0.028492084 0.00027785186 0)
(0.028102269 0.00027158672 0)
(0.027719988 0.00026545047 0)
(0.027345173 0.00025945895 0)
(0.026977726 0.00025362313 0)
(0.026617525 0.00024795022 0)
(0.026264432 0.00024244455 0)
(0.025918293 0.00023710824 0)
(0.025578946 0.00023194173 0)
(0.025246222 0.00022694423 0)
(0.024919948 0.00022211397 0)
(0.024599946 0.0002174485 0)
(0.024286038 0.00021294484 0)
(0.023978045 0.00020859962 0)
(0.023675791 0.0002044092 0)
(0.023379098 0.00020036974 0)
(0.023087792 0.00019647723 0)
(0.0228017 0.00019272759 0)
(0.022520654 0.00018911664 0)
(0.022244488 0.00018564016 0)
(0.021973038 0.00018229391 0)
(0.021706147 0.00017907363 0)
(0.021443659 0.00017597506 0)
(0.021185422 0.00017299395 0)
(0.020931292 0.00017012607 0)
(0.020681124 0.00016736722 0)
(0.02043478 0.00016471322 0)
(0.020192128 0.00016215995 0)
(0.019953038 0.00015970332 0)
(0.019717384 0.00015733931 0)
(0.019485047 0.00015506395 0)
(0.019255912 0.00015287334 0)
(0.019029866 0.00015076366 0)
(0.018806804 0.00014873114 0)
(0.018586623 0.00014677211 0)
(0.018369225 0.00014488297 0)
(0.018154516 0.00014306022 0)
(0.017942408 0.00014130041 0)
(0.017732816 0.00013960024 0)
(0.017525658 0.00013795644 0)
(0.017320858 0.00013636587 0)
(0.017118344 0.00013482549 0)
(0.016918045 0.00013333231 0)
(0.016719898 0.00013188349 0)
(0.016523841 0.00013047624 0)
(0.016329815 0.00012910789 0)
(0.016137767 0.00012777584 0)
(0.015947645 0.0001264776 0)
(0.015759403 0.00012521077 0)
(0.015572995 0.00012397303 0)
(0.015388381 0.00012276217 0)
(0.015205521 0.00012157604 0)
(0.015024381 0.0001204126 0)
(0.014844928 0.00011926988 0)
(0.014667132 0.000118146 0)
(0.014490965 0.00011703915 0)
(0.014316403 0.00011594762 0)
(0.014143423 0.00011486977 0)
(0.013972005 0.00011380404 0)
(0.013802131 0.00011274894 0)
(0.013633784 0.00011170305 0)
(0.013466952 0.00011066504 0)
(0.013301622 0.00010963363 0)
(0.013137783 0.00010860764 0)
(0.012975428 0.00010758593 0)
(0.012814549 0.00010656745 0)
(0.012655141 0.0001055512 0)
(0.0124972 0.00010453626 0)
(0.012340724 0.00010352175 0)
(0.012185712 0.00010250689 0)
(0.012032163 0.00010149093 0)
(0.011880079 0.00010047319 0)
(0.011729461 9.9453073e-05 0)
(0.011580314 9.8430003e-05 0)
(0.01143264 9.7403484e-05 0)
(0.011286445 9.6373069e-05 0)
(0.011141733 9.5338374e-05 0)
(0.010998512 9.4299063e-05 0)
(0.010856787 9.3254858e-05 0)
(0.010716566 9.220553e-05 0)
(0.010577857 9.1150901e-05 0)
(0.010440666 9.009084e-05 0)
(0.010305003 8.9025269e-05 0)
(0.010170875 8.7954158e-05 0)
(0.01003829 8.6877521e-05 0)
(0.0099072583 8.5795416e-05 0)
(0.0097777869 8.4707946e-05 0)
(0.0096498844 8.3615253e-05 0)
(0.0095235591 8.2517523e-05 0)
(0.0093988189 8.1414981e-05 0)
(0.0092756716 8.030789e-05 0)
(0.0091541246 7.9196549e-05 0)
(0.0090341849 7.8081292e-05 0)
(0.0089158591 7.6962484e-05 0)
(0.0087991533 7.5840523e-05 0)
(0.0086840731 7.4715838e-05 0)
(0.0085706236 7.3588888e-05 0)
(0.0084588091 7.2460157e-05 0)
(0.0083486333 7.1330159e-05 0)
(0.0082400993 7.0199428e-05 0)
(0.0081332094 6.9068521e-05 0)
(0.0080279649 6.7938014e-05 0)
(0.0079243666 6.6808509e-05 0)
(0.0078224144 6.5680622e-05 0)
(0.0077221071 6.4554986e-05 0)
(0.0076234429 6.343225e-05 0)
(0.0075264187 6.2313076e-05 0)
(0.0074310308 6.1198137e-05 0)
(0.0073372743 6.0088122e-05 0)
(0.0072451435 5.8983725e-05 0)
(0.0071546314 5.7885655e-05 0)
(0.0070657302 5.6794622e-05 0)
(0.0069784309 5.5711351e-05 0)
(0.0068927236 5.4636565e-05 0)
(0.0068085972 5.3570998e-05 0)
(0.0067260396 5.2515384e-05 0)
(0.0066450375 5.1470466e-05 0)
(0.0065655765 5.0436988e-05 0)
(0.0064876412 4.9415699e-05 0)
(0.0064112151 4.8407348e-05 0)
(0.0063362804 4.7412694e-05 0)
(0.0062628183 4.6432492e-05 0)
(0.0061908088 4.5467511e-05 0)
(0.0061202307 4.4518523e-05 0)
(0.0060510619 4.3586307e-05 0)
(0.0059832788 4.2671654e-05 0)
(0.0059168567 4.177537e-05 0)
(0.0058517698 4.0898274e-05 0)
(0.0057879909 4.0041216e-05 0)
(0.0057254915 3.920507e-05 0)
(0.0056642421 3.8390755e-05 0)
(0.0056042113 3.7599238e-05 0)
(0.0055453666 3.6831552e-05 0)
(0.0054876738 3.6088819e-05 0)
(0.005431097 3.537227e-05 0)
(0.0053755984 3.4683283e-05 0)
(0.005321138 3.4023431e-05 0)
(0.0052676736 3.3394535e-05 0)
(0.00521516 3.2798761e-05 0)
(0.0051635487 3.2238727e-05 0)
(0.005112787 3.1717685e-05 0)
(0.0050628171 3.1239773e-05 0)
(0.0050135748 3.081042e-05 0)
(0.004964987 3.0437004e-05 0)
(0.0049169686 3.0129979e-05 0)
(0.0048694182 2.9904856e-05 0)
(0.0048222094 2.9785821e-05 0)
(0.0047751791 2.9812378e-05 0)
(0.0047281065 3.0051625e-05 0)
(0.0046806791 3.0620581e-05 0)
(0.0046324364 3.1725786e-05 0)
(0.0045826732 3.373061e-05 0)
(0.0045303191 3.725855e-05 0)
(0.004473984 4.3306359e-05 0)
(0.0044115914 5.3324405e-05 0)
(0.0043349151 6.9247657e-05 0)
(0.0042364698 9.0989118e-05 0)
(-0.001546331 0.014865753 0)
(-0.0005094518 0.0085388592 0)
(0.0074002044 -0.0011360376 0)
(0.015694249 -0.0068189868 0)
(0.02274617 -0.0098633385 0)
(0.02882083 -0.011136409 0)
(0.034112542 -0.011153925 0)
(0.038693593 -0.010406755 0)
(0.042643526 -0.0092787056 0)
(0.046040958 -0.008012644 0)
(0.048946119 -0.0067495428 0)
(0.051405616 -0.0055667055 0)
(0.053460129 -0.0045016381 0)
(0.055147378 -0.0035673119 0)
(0.056503026 -0.0027625489 0)
(0.057561152 -0.0020787133 0)
(0.058354364 -0.0015037305 0)
(0.058913616 -0.0010244202 0)
(0.059267951 -0.00062780389 0)
(0.059444254 -0.00030179775 0)
(0.05946717 -3.5645937e-05 0)
(0.05935918 0.00018004021 0)
(0.059140137 0.00035349882 0)
(0.058827772 0.0004918115 0)
(0.05843774 0.00060098691 0)
(0.057983746 0.00068608638 0)
(0.057477707 0.00075135484 0)
(0.056929911 0.00080034152 0)
(0.056349182 0.00083600724 0)
(0.055743044 0.00086081721 0)
(0.055117877 0.00087682009 0)
(0.054479053 0.00088571479 0)
(0.05383108 0.00088890683 0)
(0.053177709 0.00088755591 0)
(0.052522051 0.00088261611 0)
(0.051866663 0.00087486983 0)
(0.051213636 0.00086495638 0)
(0.050564664 0.00085339626 0)
(0.049921111 0.00084061154 0)
(0.04928406 0.00082694302 0)
(0.048654362 0.00081266467 0)
(0.048032673 0.00079799566 0)
(0.047419489 0.00078311049 0)
(0.046815176 0.00076814728 0)
(0.046219987 0.00075321474 0)
(0.045634088 0.00073839782 0)
(0.04505757 0.00072376239 0)
(0.044490464 0.00070935907 0)
(0.043932753 0.00069522627 0)
(0.04338438 0.00068139272 0)
(0.042845254 0.00066787944 0)
(0.042315261 0.00065470136 0)
(0.041794262 0.00064186859 0)
(0.041282106 0.00062938741 0)
(0.040778624 0.00061726107 0)
(0.040283639 0.00060549042 0)
(0.039796965 0.0005940744 0)
(0.039318411 0.00058301041 0)
(0.03884778 0.00057229461 0)
(0.038384872 0.00056192215 0)
(0.037929487 0.00055188739 0)
(0.037481423 0.00054218398 0)
(0.037040478 0.00053280504 0)
(0.03660645 0.00052374321 0)
(0.03617914 0.00051499078 0)
(0.035758351 0.00050653968 0)
(0.035343887 0.00049838161 0)
(0.034935558 0.00049050807 0)
(0.034533174 0.00048291035 0)
(0.034136552 0.00047557965 0)
(0.033745512 0.00046850708 0)
(0.033359877 0.00046168366 0)
(0.032979476 0.0004551004 0)
(0.032604144 0.00044874833 0)
(0.032233718 0.00044261847 0)
(0.031868042 0.00043670191 0)
(0.031506966 0.00043098981 0)
(0.031150344 0.0004254734 0)
(0.030798034 0.00042014404 0)
(0.030449903 0.00041499319 0)
(0.03010582 0.00041001248 0)
(0.02976566 0.00040519365 0)
(0.029429306 0.00040052863 0)
(0.029096643 0.00039600951 0)
(0.028767563 0.00039162856 0)
(0.028441962 0.00038737824 0)
(0.028119743 0.00038325118 0)
(0.027800812 0.00037924022 0)
(0.027485082 0.0003753384 0)
(0.027172469 0.00037153896 0)
(0.026862894 0.00036783532 0)
(0.026556286 0.00036422114 0)
(0.026252573 0.00036069026 0)
(0.025951691 0.00035723673 0)
(0.025653581 0.0003538548 0)
(0.025358185 0.00035053893 0)
(0.025065452 0.00034728377 0)
(0.024775334 0.00034408418 0)
(0.024487787 0.00034093521 0)
(0.024202771 0.00033783211 0)
(0.023920247 0.00033477032 0)
(0.023640184 0.00033174548 0)
(0.023362552 0.00032875341 0)
(0.023087323 0.00032579012 0)
(0.022814474 0.0003228518 0)
(0.022543984 0.00031993484 0)
(0.022275836 0.00031703581 0)
(0.022010015 0.00031415142 0)
(0.021746508 0.00031127862 0)
(0.021485305 0.00030841447 0)
(0.021226399 0.00030555625 0)
(0.020969785 0.00030270138 0)
(0.020715459 0.00029984747 0)
(0.020463421 0.00029699228 0)
(0.02021367 0.00029413375 0)
(0.01996621 0.00029126996 0)
(0.019721044 0.00028839918 0)
(0.019478177 0.00028551979 0)
(0.019237618 0.00028263038 0)
(0.018999374 0.00027972965 0)
(0.018763454 0.00027681649 0)
(0.018529869 0.0002738899 0)
(0.01829863 0.00027094905 0)
(0.018069749 0.00026799325 0)
(0.017843239 0.00026502195 0)
(0.017619113 0.00026203473 0)
(0.017397385 0.00025903131 0)
(0.017178069 0.00025601156 0)
(0.016961179 0.00025297546 0)
(0.016746731 0.00024992311 0)
(0.016534737 0.00024685475 0)
(0.016325214 0.00024377074 0)
(0.016118175 0.00024067155 0)
(0.015913634 0.00023755777 0)
(0.015711604 0.00023443008 0)
(0.0155121 0.00023128929 0)
(0.015315132 0.0002281363 0)
(0.015120714 0.0002249721 0)
(0.014928857 0.00022179778 0)
(0.014739571 0.00021861453 0)
(0.014552865 0.00021542361 0)
(0.014368748 0.00021222637 0)
(0.014187228 0.00020902423 0)
(0.014008311 0.00020581869 0)
(0.013832003 0.00020261132 0)
(0.013658306 0.00019940374 0)
(0.013487225 0.00019619764 0)
(0.013318759 0.00019299477 0)
(0.013152911 0.00018979693 0)
(0.012989677 0.00018660596 0)
(0.012829055 0.00018342375 0)
(0.012671041 0.00018025223 0)
(0.012515627 0.00017709336 0)
(0.012362808 0.00017394914 0)
(0.012212573 0.00017082161 0)
(0.012064911 0.00016771282 0)
(0.011919809 0.00016462484 0)
(0.011777254 0.00016155979 0)
(0.011637228 0.00015851977 0)
(0.011499715 0.00015550693 0)
(0.011364693 0.00015252343 0)
(0.011232142 0.00014957143 0)
(0.011102038 0.00014665311 0)
(0.010974356 0.00014377067 0)
(0.010849069 0.00014092632 0)
(0.010726148 0.0001381223 0)
(0.010605561 0.00013536086 0)
(0.010487277 0.00013264427 0)
(0.01037126 0.00012997484 0)
(0.010257474 0.00012735492 0)
(0.010145879 0.0001247869 0)
(0.010036436 0.00012227325 0)
(0.0099291019 0.0001198165 0)
(0.0098238309 0.00011741931 0)
(0.0097205762 0.00011508446 0)
(0.0096192881 0.00011281494 0)
(0.0095199145 0.00011061392 0)
(0.0094224006 0.00010848493 0)
(0.0093266886 0.00010643185 0)
(0.0092327172 0.00010445912 0)
(0.0091404216 0.00010257183 0)
(0.0090497326 0.00010077602 0)
(0.0089605759 9.9078982e-05 0)
(0.0088728709 9.7489711e-05 0)
(0.0087865295 9.6019626e-05 0)
(0.0087014539 9.4683612e-05 0)
(0.0086175336 9.3501685e-05 0)
(0.0085346415 9.2501678e-05 0)
(0.0084526279 9.1723717e-05 0)
(0.0083713108 9.1227793e-05 0)
(0.0082904635 9.1106714e-05 0)
(0.0082097936 9.1508113e-05 0)
(0.0081289149 9.2671128e-05 0)
(0.0080473057 9.4984947e-05 0)
(0.0079642498 9.9075509e-05 0)
(0.0078787837 0.00010591309 0)
(0.0077898975 0.00011686444 0)
(0.0076965868 0.00013352203 0)
(0.0075924991 0.00015697574 0)
(0.0074648075 0.00018511991 0)
(0.026914119 -0.0043814542 0)
(0.041211885 -0.010611533 0)
(0.053559294 -0.014558498 0)
(0.062219796 -0.016386785 0)
(0.067102663 -0.016805855 0)
(0.070003664 -0.016287214 0)
(0.071999643 -0.015136901 0)
(0.073509917 -0.013621138 0)
(0.074741383 -0.011953856 0)
(0.075808986 -0.010278146 0)
(0.076759568 -0.0086793308 0)
(0.077603107 -0.0072041748 0)
(0.078336493 -0.0058743938 0)
(0.078953673 -0.0046956532 0)
(0.079449377 -0.0036639325 0)
(0.079820792 -0.0027698535 0)
(0.080068101 -0.0020014251 0)
(0.080194297 -0.0013457152 0)
(0.080204669 -0.00078982035 0)
(0.080106167 -0.00032151681 0)
(0.079907283 7.0456849e-05 0)
(0.079616634 0.00039643405 0)
(0.079243243 0.00066563489 0)
(0.07879622 0.00088618526 0)
(0.07828449 0.0010652064 0)
(0.077716612 0.0012089228 0)
(0.077100629 0.0013227522 0)
(0.076443988 0.0014113868 0)
(0.075753485 0.0014788729 0)
(0.075035251 0.0015286858 0)
(0.074294767 0.0015637985 0)
(0.073536883 0.0015867445 0)
(0.072765859 0.0015996744 0)
(0.071985413 0.0016044066 0)
(0.071198761 0.0016024731 0)
(0.070408673 0.001595159 0)
(0.069617518 0.0015835386 0)
(0.068827309 0.0015685061 0)
(0.06803975 0.0015508032 0)
(0.067256269 0.0015310426 0)
(0.066478058 0.0015097286 0)
(0.065706107 0.001487275 0)
(0.064941226 0.0014640196 0)
(0.064184074 0.0014402377 0)
(0.063435182 0.0014161528 0)
(0.062694969 0.0013919455 0)
(0.061963757 0.0013677613 0)
(0.061241791 0.0013437173 0)
(0.060529244 0.0013199068 0)
(0.059826233 0.0012964044 0)
(0.059132822 0.001273269 0)
(0.058449035 0.0012505468 0)
(0.057774858 0.0012282739 0)
(0.057110246 0.0012064779 0)
(0.056455129 0.0011851797 0)
(0.055809413 0.0011643943 0)
(0.055172986 0.0011441323 0)
(0.054545719 0.0011244006 0)
(0.053927469 0.0011052025 0)
(0.053318084 0.0010865389 0)
(0.052717399 0.0010684083 0)
(0.052125245 0.0010508074 0)
(0.051541443 0.0010337309 0)
(0.050965812 0.0010171726 0)
(0.050398166 0.0010011245 0)
(0.049838316 0.00098557777 0)
(0.049286074 0.00097052273 0)
(0.048741248 0.00095594875 0)
(0.048203648 0.00094184455 0)
(0.047673085 0.00092819824 0)
(0.047149371 0.00091499743 0)
(0.046632319 0.0009022293 0)
(0.046121746 0.00088988069 0)
(0.045617472 0.00087793816 0)
(0.045119319 0.00086638807 0)
(0.044627115 0.00085521661 0)
(0.04414069 0.00084440989 0)
(0.043659879 0.00083395396 0)
(0.043184523 0.00082383489 0)
(0.042714466 0.00081403875 0)
(0.042249557 0.00080455175 0)
(0.041789652 0.00079536015 0)
(0.04133461 0.00078645041 0)
(0.040884297 0.00077780912 0)
(0.040438583 0.0007694231 0)
(0.039997344 0.00076127937 0)
(0.039560462 0.00075336518 0)
(0.039127823 0.00074566805 0)
(0.038699321 0.00073817575 0)
(0.038274852 0.00073087635 0)
(0.037854319 0.00072375816 0)
(0.03743763 0.00071680985 0)
(0.0370247 0.00071002034 0)
(0.036615447 0.00070337889 0)
(0.036209793 0.00069687505 0)
(0.035807669 0.00069049871 0)
(0.035409007 0.00068424006 0)
(0.035013745 0.00067808961 0)
(0.034621827 0.00067203819 0)
(0.0342332 0.00066607696 0)
(0.033847815 0.00066019739 0)
(0.03346563 0.00065439128 0)
(0.033086605 0.00064865073 0)
(0.032710703 0.00064296817 0)
(0.032337894 0.00063733636 0)
(0.03196815 0.00063174835 0)
(0.031601446 0.00062619751 0)
(0.031237763 0.00062067755 0)
(0.030877082 0.00061518244 0)
(0.030519391 0.0006097065 0)
(0.030164678 0.00060424435 0)
(0.029812937 0.00059879088 0)
(0.029464161 0.00059334134 0)
(0.029118349 0.00058789123 0)
(0.028775501 0.00058243638 0)
(0.02843562 0.00057697291 0)
(0.028098711 0.00057149722 0)
(0.027764782 0.000566006 0)
(0.027433841 0.00056049626 0)
(0.0271059 0.00055496526 0)
(0.02678097 0.00054941058 0)
(0.026459067 0.00054383005 0)
(0.026140206 0.00053822178 0)
(0.025824404 0.00053258418 0)
(0.025511679 0.0005269159 0)
(0.025202049 0.00052121587 0)
(0.024895535 0.00051548329 0)
(0.024592156 0.0005097176 0)
(0.024291933 0.0005039185 0)
(0.023994889 0.00049808594 0)
(0.023701043 0.00049222012 0)
(0.023410418 0.00048632147 0)
(0.023123034 0.00048039064 0)
(0.022838915 0.00047442853 0)
(0.022558079 0.00046843624 0)
(0.022280548 0.00046241509 0)
(0.022006342 0.00045636661 0)
(0.02173548 0.00045029252 0)
(0.02146798 0.00044419474 0)
(0.02120386 0.00043807537 0)
(0.020943136 0.00043193668 0)
(0.020685824 0.00042578113 0)
(0.020431938 0.00041961132 0)
(0.02018149 0.00041343001 0)
(0.019934492 0.00040724011 0)
(0.019690953 0.00040104467 0)
(0.019450882 0.00039484686 0)
(0.019214284 0.00038864998 0)
(0.018981164 0.00038245744 0)
(0.018751524 0.00037627274 0)
(0.018525367 0.00037009951 0)
(0.018302689 0.00036394145 0)
(0.018083487 0.00035780234 0)
(0.017867757 0.00035168606 0)
(0.01765549 0.00034559653 0)
(0.017446676 0.00033953776 0)
(0.017241303 0.00033351379 0)
(0.017039355 0.00032752874 0)
(0.016840817 0.00032158676 0)
(0.016645669 0.00031569204 0)
(0.016453889 0.00030984883 0)
(0.016265451 0.00030406138 0)
(0.016080331 0.00029833402 0)
(0.015898498 0.00029267107 0)
(0.015719919 0.00028707692 0)
(0.015544562 0.00028155599 0)
(0.015372388 0.00027611272 0)
(0.015203358 0.00027075163 0)
(0.015037429 0.00026547728 0)
(0.014874557 0.00026029431 0)
(0.014714693 0.00025520746 0)
(0.014557787 0.00025022159 0)
(0.014403785 0.00024534169 0)
(0.01425263 0.00024057297 0)
(0.014104264 0.00023592087 0)
(0.013958623 0.00023139119 0)
(0.013815642 0.00022699011 0)
(0.01367525 0.00022272438 0)
(0.013537375 0.00021860147 0)
(0.013401937 0.00021462978 0)
(0.013268855 0.00021081896 0)
(0.013138041 0.00020718033 0)
(0.013009399 0.00020372744 0)
(0.012882829 0.0002004769 0)
(0.012758218 0.00019744962 0)
(0.012635445 0.00019467248 0)
(0.012514373 0.00019218114 0)
(0.012394848 0.00019002414 0)
(0.012276691 0.00018826957 0)
(0.012159693 0.00018701568 0)
(0.012043603 0.00018640796 0)
(0.011928117 0.00018666631 0)
(0.011812863 0.00018812707 0)
(0.011697385 0.00019130421 0)
(0.011581134 0.00019696873 0)
(0.011463468 0.00020622641 0)
(0.011343945 0.000220495 0)
(0.01122252 0.00024115986 0)
(0.01109446 0.00026834454 0)
(0.010938798 0.00029939777 0)
(0.14334414 -0.006162734 0)
(0.13236179 -0.012717547 0)
(0.12490282 -0.015302224 0)
(0.11946155 -0.016258108 0)
(0.11499025 -0.016241863 0)
(0.11138963 -0.01553728 0)
(0.10860847 -0.014403791 0)
(0.10648141 -0.013027489 0)
(0.10486048 -0.011534168 0)
(0.10363561 -0.010015539 0)
(0.10271233 -0.0085368779 0)
(0.10200839 -0.0071405635 0)
(0.10145678 -0.0058511612 0)
(0.1010048 -0.0046804017 0)
(0.10061139 -0.003631184 0)
(0.10024512 -0.0027006665 0)
(0.099882492 -0.0018825544 0)
(0.099506466 -0.0011686655 0)
(0.099105029 -0.00054995713 0)
(0.098670418 -1.7118218e-05 0)
(0.098197543 0.000438924 0)
(0.09768392 0.0008267618 0)
(0.097129139 0.001154341 0)
(0.096534094 0.0014289157 0)
(0.095900638 0.0016570777 0)
(0.095231303 0.0018447887 0)
(0.094529056 0.0019974084 0)
(0.093797114 0.0021197275 0)
(0.0930388 0.0022160044 0)
(0.092257433 0.0022900046 0)
(0.091456246 0.0023450397 0)
(0.090638327 0.0023840075 0)
(0.089806582 0.0024094308 0)
(0.088963709 0.0024234954 0)
(0.088112188 0.0024280857 0)
(0.087254278 0.0024248189 0)
(0.086392017 0.0024150772 0)
(0.085527238 0.0024000364 0)
(0.084661572 0.0023806929 0)
(0.083796468 0.0023578884 0)
(0.082933202 0.0023323309 0)
(0.082072897 0.0023046145 0)
(0.081216532 0.0022752361 0)
(0.080364959 0.0022446104 0)
(0.079518915 0.002213083 0)
(0.078679033 0.002180941 0)
(0.077845856 0.0021484228 0)
(0.07701984 0.002115726 0)
(0.076201372 0.0020830145 0)
(0.075390771 0.0020504238 0)
(0.074588297 0.002018066 0)
(0.073794159 0.0019860336 0)
(0.073008518 0.0019544028 0)
(0.072231496 0.0019232364 0)
(0.071463174 0.0018925855 0)
(0.070703605 0.0018624919 0)
(0.069952808 0.0018329892 0)
(0.069210778 0.0018041039 0)
(0.068477487 0.001775857 0)
(0.067752886 0.001748264 0)
(0.067036906 0.0017213362 0)
(0.066329465 0.001695081 0)
(0.065630464 0.0016695024 0)
(0.064939795 0.0016446013 0)
(0.064257336 0.0016203762 0)
(0.063582957 0.001596823 0)
(0.062916523 0.0015739357 0)
(0.062257888 0.0015517064 0)
(0.061606904 0.0015301253 0)
(0.06096342 0.0015091815 0)
(0.060327277 0.0014888626 0)
(0.059698319 0.0014691552 0)
(0.059076386 0.0014500448 0)
(0.058461318 0.001431516 0)
(0.057852956 0.0014135529 0)
(0.05725114 0.0013961387 0)
(0.056655713 0.0013792564 0)
(0.056066519 0.0013628884 0)
(0.055483404 0.0013470167 0)
(0.054906218 0.0013316233 0)
(0.054334815 0.0013166898 0)
(0.053769048 0.001302198 0)
(0.053208779 0.0012881294 0)
(0.052653871 0.0012744657 0)
(0.052104193 0.0012611885 0)
(0.051559616 0.0012482798 0)
(0.051020018 0.0012357216 0)
(0.05048528 0.0012234961 0)
(0.049955289 0.0012115857 0)
(0.049429937 0.0011999732 0)
(0.04890912 0.0011886417 0)
(0.04839274 0.0011775745 0)
(0.047880702 0.0011667553 0)
(0.047372919 0.0011561681 0)
(0.046869307 0.0011457974 0)
(0.046369788 0.001135628 0)
(0.045874289 0.001125645 0)
(0.04538274 0.0011158341 0)
(0.044895078 0.0011061813 0)
(0.044411245 0.0010966729 0)
(0.043931187 0.001087296 0)
(0.043454854 0.0010780377 0)
(0.042982202 0.0010688857 0)
(0.04251319 0.0010598282 0)
(0.042047782 0.0010508539 0)
(0.041585948 0.0010419516 0)
(0.041127659 0.001033111 0)
(0.040672893 0.0010243218 0)
(0.04022163 0.0010155746 0)
(0.039773855 0.00100686 0)
(0.039329556 0.00099816941 0)
(0.038888724 0.00098949446 0)
(0.038451354 0.00098082733 0)
(0.038017446 0.00097216062 0)
(0.037587 0.00096348738 0)
(0.037160021 0.00095480111 0)
(0.036736516 0.00094609576 0)
(0.036316495 0.00093736572 0)
(0.035899971 0.00092860583 0)
(0.035486959 0.00091981136 0)
(0.035077474 0.00091097805 0)
(0.034671537 0.00090210206 0)
(0.034269168 0.00089317996 0)
(0.033870389 0.00088420881 0)
(0.033475225 0.00087518604 0)
(0.033083701 0.00086610954 0)
(0.032695843 0.00085697762 0)
(0.032311679 0.000847789 0)
(0.031931238 0.00083854279 0)
(0.031554548 0.00082923853 0)
(0.031181639 0.00081987615 0)
(0.030812541 0.00081045596 0)
(0.030447283 0.00080097867 0)
(0.030085896 0.00079144535 0)
(0.02972841 0.00078185744 0)
(0.029374854 0.00077221674 0)
(0.029025257 0.00076252538 0)
(0.028679647 0.00075278585 0)
(0.028338052 0.00074300094 0)
(0.028000499 0.00073317379 0)
(0.027667013 0.00072330782 0)
(0.027337618 0.00071340674 0)
(0.027012337 0.00070347455 0)
(0.026691191 0.00069351551 0)
(0.0263742 0.00068353415 0)
(0.026061383 0.00067353523 0)
(0.025752754 0.00066352374 0)
(0.025448328 0.00065350489 0)
(0.025148116 0.00064348411 0)
(0.024852129 0.00063346699 0)
(0.024560374 0.00062345933 0)
(0.024272855 0.00061346709 0)
(0.023989574 0.00060349637 0)
(0.023710532 0.00059355342 0)
(0.023435725 0.00058364465 0)
(0.023165148 0.00057377655 0)
(0.022898792 0.00056395574 0)
(0.022636646 0.00055418895 0)
(0.022378695 0.00054448298 0)
(0.022124921 0.00053484473 0)
(0.021875305 0.00052528117 0)
(0.021629823 0.00051579936 0)
(0.021388447 0.0005064064 0)
(0.021151149 0.00049710947 0)
(0.020917895 0.00048791582 0)
(0.020688649 0.00047883276 0)
(0.02046337 0.00046986767 0)
(0.020242017 0.00046102804 0)
(0.020024542 0.00045232143 0)
(0.019810896 0.00044375553 0)
(0.019601025 0.00043533816 0)