/*--------------------------------*- C++ -*----------------------------------*\
| =========                 |                                                 |
| \\      /  F ield         | OpenFOAM: The Open Source CFD Toolbox           |
|  \\    /   O peration     | Version:  2406                                  |
|   \\  /    A nd           | Website:  www.openfoam.com                      |
|    \\/     M anipulation  |                                                 |
\*---------------------------------------------------------------------------*/
FoamFile
{
    version     2.0;
    format      ascii;
    arch        "LSB;label=32;scalar=64";
    class       volVectorField;
    location    "1000";
    object      C;
}
// * * * * * * * * * * * * * * * * * * * * * * * * * * * * * * * * * * * * * //

dimensions      [0 1 0 0 0 0 0];

internalField   nonuniform List<vector> 
500
(
(1e-05 0.0005 0.0005)
(3e-05 0.0005 0.0005)
(5e-05 0.0005 0.0005)
(7e-05 0.0005 0.0005)
(9e-05 0.0005 0.0005)
(0.00011 0.0005 0.0005)
(0.00013 0.0005 0.0005)
(0.00015 0.0005 0.0005)
(0.00017 0.0005 0.0005)
(0.00019 0.0005 0.0005)
(0.00021 0.0005 0.0005)
(0.00023 0.0005 0.0005)
(0.00025 0.0005 0.0005)
(0.00027 0.0005 0.0005)
(0.00029 0.0005 0.0005)
(0.00031 0.0005 0.0005)
(0.00033 0.0005 0.0005)
(0.00035 0.0005 0.0005)
(0.00037 0.0005 0.0005)
(0.00039 0.0005 0.0005)
(0.00041 0.0005 0.0005)
(0.00043 0.0005 0.0005)
(0.00045 0.0005 0.0005)
(0.00047 0.0005 0.0005)
(0.00049 0.0005 0.0005)
(0.00051 0.0005 0.0005)
(0.00053 0.0005 0.0005)
(0.00055 0.0005 0.0005)
(0.00057 0.0005 0.0005)
(0.00059 0.0005 0.0005)
(0.00061 0.0005 0.0005)
(0.00063 0.0005 0.0005)
(0.00065 0.0005 0.0005)
(0.00067 0.0005 0.0005)
(0.00069 0.0005 0.0005)
(0.00071 0.0005 0.0005)
(0.00073 0.0005 0.0005)
(0.00075 0.0005 0.0005)
(0.00077 0.0005 0.0005)
(0.00079 0.0005 0.0005)
(0.00081 0.0005 0.0005)
(0.00083 0.0005 0.0005)
(0.00085 0.0005 0.0005)
(0.00087 0.0005 0.0005)
(0.00089 0.0005 0.0005)
(0.00091 0.0005 0.0005)
(0.00093 0.0005 0.0005)
(0.00095 0.0005 0.0005)
(0.00097 0.0005 0.0005)
(0.00099 0.0005 0.0005)
(0.00101 0.0005 0.0005)
(0.00103 0.0005 0.0005)
(0.00105 0.0005 0.0005)
(0.00107 0.0005 0.0005)
(0.00109 0.0005 0.0005)
(0.00111 0.0005 0.0005)
(0.00113 0.0005 0.0005)
(0.00115 0.0005 0.0005)
(0.00117 0.0005 0.0005)
(0.00119 0.0005 0.0005)
(0.00121 0.0005 0.0005)
(0.00123 0.0005 0.0005)
(0.00125 0.0005 0.0005)
(0.00127 0.0005 0.0005)
(0.00129 0.0005 0.0005)
(0.00131 0.0005 0.0005)
(0.00133 0.0005 0.0005)
(0.00135 0.0005 0.0005)
(0.00137 0.0005 0.0005)
(0.00139 0.0005 0.0005)
(0.00141 0.0005 0.0005)
(0.00143 0.0005 0.0005)
(0.00145 0.0005 0.0005)
(0.00147 0.0005 0.0005)
(0.00149 0.0005 0.0005)
(0.00151 0.0005 0.0005)
(0.00153 0.0005 0.0005)
(0.00155 0.0005 0.0005)
(0.00157 0.0005 0.0005)
(0.00159 0.0005 0.0005)
(0.00161 0.0005 0.0005)
(0.00163 0.0005 0.0005)
(0.00165 0.0005 0.0005)
(0.00167 0.0005 0.0005)
(0.00169 0.0005 0.0005)
(0.00171 0.0005 0.0005)
(0.00173 0.0005 0.0005)
(0.00175 0.0005 0.0005)
(0.00177 0.0005 0.0005)
(0.00179 0.0005 0.0005)
(0.00181 0.0005 0.0005)
(0.00183 0.0005 0.0005)
(0.00185 0.0005 0.0005)
(0.00187 0.0005 0.0005)
(0.00189 0.0005 0.0005)
(0.00191 0.0005 0.0005)
(0.00193 0.0005 0.0005)
(0.00195 0.0005 0.0005)
(0.00197 0.0005 0.0005)
(0.00199 0.0005 0.0005)
(0.00201 0.0005 0.0005)
(0.00203 0.0005 0.0005)
(0.00205 0.0005 0.0005)
(0.00207 0.0005 0.0005)
(0.00209 0.0005 0.0005)
(0.00211 0.0005 0.0005)
(0.00213 0.0005 0.0005)
(0.00215 0.0005 0.0005)
(0.00217 0.0005 0.0005)
(0.00219 0.0005 0.0005)
(0.00221 0.0005 0.0005)
(0.00223 0.0005 0.0005)
(0.00225 0.0005 0.0005)
(0.00227 0.0005 0.0005)
(0.00229 0.0005 0.0005)
(0.00231 0.0005 0.0005)
(0.00233 0.0005 0.0005)
(0.00235 0.0005 0.0005)
(0.00237 0.0005 0.0005)
(0.00239 0.0005 0.0005)
(0.00241 0.0005 0.0005)
(0.00243 0.0005 0.0005)
(0.00245 0.0005 0.0005)
(0.00247 0.0005 0.0005)
(0.00249 0.0005 0.0005)
(0.00251 0.0005 0.0005)
(0.00253 0.0005 0.0005)
(0.00255 0.0005 0.0005)
(0.00257 0.0005 0.0005)
(0.00259 0.0005 0.0005)
(0.00261 0.0005 0.0005)
(0.00263 0.0005 0.0005)
(0.00265 0.0005 0.0005)
(0.00267 0.0005 0.0005)
(0.00269 0.0005 0.0005)
(0.00271 0.0005 0.0005)
(0.00273 0.0005 0.0005)
(0.00275 0.0005 0.0005)
(0.00277 0.0005 0.0005)
(0.00279 0.0005 0.0005)
(0.00281 0.0005 0.0005)
(0.00283 0.0005 0.0005)
(0.00285 0.0005 0.0005)
(0.00287 0.0005 0.0005)
(0.00289 0.0005 0.0005)
(0.00291 0.0005 0.0005)
(0.00293 0.0005 0.0005)
(0.00295 0.0005 0.0005)
(0.00297 0.0005 0.0005)
(0.00299 0.0005 0.0005)
(0.00301 0.0005 0.0005)
(0.00303 0.0005 0.0005)
(0.00305 0.0005 0.0005)
(0.00307 0.0005 0.0005)
(0.00309 0.0005 0.0005)
(0.00311 0.0005 0.0005)
(0.00313 0.0005 0.0005)
(0.00315 0.0005 0.0005)
(0.00317 0.0005 0.0005)
(0.00319 0.0005 0.0005)
(0.00321 0.0005 0.0005)
(0.00323 0.0005 0.0005)
(0.00325 0.0005 0.0005)
(0.00327 0.0005 0.0005)
(0.00329 0.0005 0.0005)
(0.00331 0.0005 0.0005)
(0.00333 0.0005 0.0005)
(0.00335 0.0005 0.0005)
(0.00337 0.0005 0.0005)
(0.00339 0.0005 0.0005)
(0.00341 0.0005 0.0005)
(0.00343 0.0005 0.0005)
(0.00345 0.0005 0.0005)
(0.00347 0.0005 0.0005)
(0.00349 0.0005 0.0005)
(0.00351 0.0005 0.0005)
(0.00353 0.0005 0.0005)
(0.00355 0.0005 0.0005)
(0.00357 0.0005 0.0005)
(0.00359 0.0005 0.0005)
(0.00361 0.0005 0.0005)
(0.00363 0.0005 0.0005)
(0.00365 0.0005 0.0005)
(0.00367 0.0005 0.0005)
(0.00369 0.0005 0.0005)
(0.00371 0.0005 0.0005)
(0.00373 0.0005 0.0005)
(0.00375 0.0005 0.0005)
(0.00377 0.0005 0.0005)
(0.00379 0.0005 0.0005)
(0.00381 0.0005 0.0005)
(0.00383 0.0005 0.0005)
(0.00385 0.0005 0.0005)
(0.00387 0.0005 0.0005)
(0.00389 0.0005 0.0005)
(0.00391 0.0005 0.0005)
(0.00393 0.0005 0.0005)
(0.00395 0.0005 0.0005)
(0.00397 0.0005 0.0005)
(0.00399 0.0005 0.0005)
(0.00401 0.0005 0.0005)
(0.00403 0.0005 0.0005)
(0.00405 0.0005 0.0005)
(0.00407 0.0005 0.0005)
(0.00409 0.0005 0.0005)
(0.00411 0.0005 0.0005)
(0.00413 0.0005 0.0005)
(0.00415 0.0005 0.0005)
(0.00417 0.0005 0.0005)
(0.00419 0.0005 0.0005)
(0.00421 0.0005 0.0005)
(0.00423 0.0005 0.0005)
(0.00425 0.0005 0.0005)
(0.00427 0.0005 0.0005)
(0.00429 0.0005 0.0005)
(0.00431 0.0005 0.0005)
(0.00433 0.0005 0.0005)
(0.00435 0.0005 0.0005)
(0.00437 0.0005 0.0005)
(0.00439 0.0005 0.0005)
(0.00441 0.0005 0.0005)
(0.00443 0.0005 0.0005)
(0.00445 0.0005 0.0005)
(0.00447 0.0005 0.0005)
(0.00449 0.0005 0.0005)
(0.00451 0.0005 0.0005)
(0.00453 0.0005 0.0005)
(0.00455 0.0005 0.0005)
(0.00457 0.0005 0.0005)
(0.00459 0.0005 0.0005)
(0.00461 0.0005 0.0005)
(0.00463 0.0005 0.0005)
(0.00465 0.0005 0.0005)
(0.00467 0.0005 0.0005)
(0.00469 0.0005 0.0005)
(0.00471 0.0005 0.0005)
(0.00473 0.0005 0.0005)
(0.00475 0.0005 0.0005)
(0.00477 0.0005 0.0005)
(0.00479 0.0005 0.0005)
(0.00481 0.0005 0.0005)
(0.00483 0.0005 0.0005)
(0.00485 0.0005 0.0005)
(0.00487 0.0005 0.0005)
(0.00489 0.0005 0.0005)
(0.00491 0.0005 0.0005)
(0.00493 0.0005 0.0005)
(0.00495 0.0005 0.0005)
(0.00497 0.0005 0.0005)
(0.00499 0.0005 0.0005)
(0.00501 0.0005 0.0005)
(0.00503 0.0005 0.0005)
(0.00505 0.0005 0.0005)
(0.00507 0.0005 0.0005)
(0.00509 0.0005 0.0005)
(0.00511 0.0005 0.0005)
(0.00513 0.0005 0.0005)
(0.00515 0.0005 0.0005)
(0.00517 0.0005 0.0005)
(0.00519 0.0005 0.0005)
(0.00521 0.0005 0.0005)
(0.00523 0.0005 0.0005)
(0.00525 0.0005 0.0005)
(0.00527 0.0005 0.0005)
(0.00529 0.0005 0.0005)
(0.00531 0.0005 0.0005)
(0.00533 0.0005 0.0005)
(0.00535 0.0005 0.0005)
(0.00537 0.0005 0.0005)
(0.00539 0.0005 0.0005)
(0.00541 0.0005 0.0005)
(0.00543 0.0005 0.0005)
(0.00545 0.0005 0.0005)
(0.00547 0.0005 0.0005)
(0.00549 0.0005 0.0005)
(0.00551 0.0005 0.0005)
(0.00553 0.0005 0.0005)
(0.00555 0.0005 0.0005)
(0.00557 0.0005 0.0005)
(0.00559 0.0005 0.0005)
(0.00561 0.0005 0.0005)
(0.00563 0.0005 0.0005)
(0.00565 0.0005 0.0005)
(0.00567 0.0005 0.0005)
(0.00569 0.0005 0.0005)
(0.00571 0.0005 0.0005)
(0.00573 0.0005 0.0005)
(0.00575 0.0005 0.0005)
(0.00577 0.0005 0.0005)
(0.00579 0.0005 0.0005)
(0.00581 0.0005 0.0005)
(0.00583 0.0005 0.0005)
(0.00585 0.0005 0.0005)
(0.00587 0.0005 0.0005)
(0.00589 0.0005 0.0005)
(0.00591 0.0005 0.0005)
(0.00593 0.0005 0.0005)
(0.00595 0.0005 0.0005)
(0.00597 0.0005 0.0005)
(0.00599 0.0005 0.0005)
(0.00601 0.0005 0.0005)
(0.00603 0.0005 0.0005)
(0.00605 0.0005 0.0005)
(0.00607 0.0005 0.0005)
(0.00609 0.0005 0.0005)
(0.00611 0.0005 0.0005)
(0.00613 0.0005 0.0005)
(0.00615 0.0005 0.0005)
(0.00617 0.0005 0.0005)
(0.00619 0.0005 0.0005)
(0.00621 0.0005 0.0005)
(0.00623 0.0005 0.0005)
(0.00625 0.0005 0.0005)
(0.00627 0.0005 0.0005)
(0.00629 0.0005 0.0005)
(0.00631 0.0005 0.0005)
(0.00633 0.0005 0.0005)
(0.00635 0.0005 0.0005)
(0.00637 0.0005 0.0005)
(0.00639 0.0005 0.0005)
(0.00641 0.0005 0.0005)
(0.00643 0.0005 0.0005)
(0.00645 0.0005 0.0005)
(0.00647 0.0005 0.0005)
(0.00649 0.0005 0.0005)
(0.00651 0.0005 0.0005)
(0.00653 0.0005 0.0005)
(0.00655 0.0005 0.0005)
(0.00657 0.0005 0.0005)
(0.00659 0.0005 0.0005)
(0.00661 0.0005 0.0005)
(0.00663 0.0005 0.0005)
(0.00665 0.0005 0.0005)
(0.00667 0.0005 0.0005)
(0.00669 0.0005 0.0005)
(0.00671 0.0005 0.0005)
(0.00673 0.0005 0.0005)
(0.00675 0.0005 0.0005)
(0.00677 0.0005 0.0005)
(0.00679 0.0005 0.0005)
(0.00681 0.0005 0.0005)
(0.00683 0.0005 0.0005)
(0.00685 0.0005 0.0005)
(0.00687 0.0005 0.0005)
(0.00689 0.0005 0.0005)
(0.00691 0.0005 0.0005)
(0.00693 0.0005 0.0005)
(0.00695 0.0005 0.0005)
(0.00697 0.0005 0.0005)
(0.00699 0.0005 0.0005)
(0.00701 0.0005 0.0005)
(0.00703 0.0005 0.0005)
(0.00705 0.0005 0.0005)
(0.00707 0.0005 0.0005)
(0.00709 0.0005 0.0005)
(0.00711 0.0005 0.0005)
(0.00713 0.0005 0.0005)
(0.00715 0.0005 0.0005)
(0.00717 0.0005 0.0005)
(0.00719 0.0005 0.0005)
(0.00721 0.0005 0.0005)
(0.00723 0.0005 0.0005)
(0.00725 0.0005 0.0005)
(0.00727 0.0005 0.0005)
(0.00729 0.0005 0.0005)
(0.00731 0.0005 0.0005)
(0.00733 0.0005 0.0005)
(0.00735 0.0005 0.0005)
(0.00737 0.0005 0.0005)
(0.00739 0.0005 0.0005)
(0.00741 0.0005 0.0005)
(0.00743 0.0005 0.0005)
(0.00745 0.0005 0.0005)
(0.00747 0.0005 0.0005)
(0.00749 0.0005 0.0005)
(0.00751 0.0005 0.0005)
(0.00753 0.0005 0.0005)
(0.00755 0.0005 0.0005)
(0.00757 0.0005 0.0005)
(0.00759 0.0005 0.0005)
(0.00761 0.0005 0.0005)
(0.00763 0.0005 0.0005)
(0.00765 0.0005 0.0005)
(0.00767 0.0005 0.0005)
(0.00769 0.0005 0.0005)
(0.00771 0.0005 0.0005)
(0.00773 0.0005 0.0005)
(0.00775 0.0005 0.0005)
(0.00777 0.0005 0.0005)
(0.00779 0.0005 0.0005)
(0.00781 0.0005 0.0005)
(0.00783 0.0005 0.0005)
(0.00785 0.0005 0.0005)
(0.00787 0.0005 0.0005)
(0.00789 0.0005 0.0005)
(0.00791 0.0005 0.0005)
(0.00793 0.0005 0.0005)
(0.00795 0.0005 0.0005)
(0.00797 0.0005 0.0005)
(0.00799 0.0005 0.0005)
(0.00801 0.0005 0.0005)
(0.00803 0.0005 0.0005)
(0.00805 0.0005 0.0005)
(0.00807 0.0005 0.0005)
(0.00809 0.0005 0.0005)
(0.00811 0.0005 0.0005)
(0.00813 0.0005 0.0005)
(0.00815 0.0005 0.0005)
(0.00817 0.0005 0.0005)
(0.00819 0.0005 0.0005)
(0.00821 0.0005 0.0005)
(0.00823 0.0005 0.0005)
(0.00825 0.0005 0.0005)
(0.00827 0.0005 0.0005)
(0.00829 0.0005 0.0005)
(0.00831 0.0005 0.0005)
(0.00833 0.0005 0.0005)
(0.00835 0.0005 0.0005)
(0.00837 0.0005 0.0005)
(0.00839 0.0005 0.0005)
(0.00841 0.0005 0.0005)
(0.00843 0.0005 0.0005)
(0.00845 0.0005 0.0005)
(0.00847 0.0005 0.0005)
(0.00849 0.0005 0.0005)
(0.00851 0.0005 0.0005)
(0.00853 0.0005 0.0005)
(0.00855 0.0005 0.0005)
(0.00857 0.0005 0.0005)
(0.00859 0.0005 0.0005)
(0.00861 0.0005 0.0005)
(0.00863 0.0005 0.0005)
(0.00865 0.0005 0.0005)
(0.00867 0.0005 0.0005)
(0.00869 0.0005 0.0005)
(0.00871 0.0005 0.0005)
(0.00873 0.0005 0.0005)
(0.00875 0.0005 0.0005)
(0.00877 0.0005 0.0005)
(0.00879 0.0005 0.0005)
(0.00881 0.0005 0.0005)
(0.00883 0.0005 0.0005)
(0.00885 0.0005 0.0005)
(0.00887 0.0005 0.0005)
(0.00889 0.0005 0.0005)
(0.00891 0.0005 0.0005)
(0.00893 0.0005 0.0005)
(0.00895 0.0005 0.0005)
(0.00897 0.0005 0.0005)
(0.00899 0.0005 0.0005)
(0.00901 0.0005 0.0005)
(0.00903 0.0005 0.0005)
(0.00905 0.0005 0.0005)
(0.00907 0.0005 0.0005)
(0.00909 0.0005 0.0005)
(0.00911 0.0005 0.0005)
(0.00913 0.0005 0.0005)
(0.00915 0.0005 0.0005)
(0.00917 0.0005 0.0005)
(0.00919 0.0005 0.0005)
(0.00921 0.0005 0.0005)
(0.00923 0.0005 0.0005)
(0.00925 0.0005 0.0005)
(0.00927 0.0005 0.0005)
(0.00929 0.0005 0.0005)
(0.00931 0.0005 0.0005)
(0.00933 0.0005 0.0005)
(0.00935 0.0005 0.0005)
(0.00937 0.0005 0.0005)
(0.00939 0.0005 0.0005)
(0.00941 0.0005 0.0005)
(0.00943 0.0005 0.0005)
(0.00945 0.0005 0.0005)
(0.00947 0.0005 0.0005)
(0.00949 0.0005 0.0005)
(0.00951 0.0005 0.0005)
(0.00953 0.0005 0.0005)
(0.00955 0.0005 0.0005)
(0.00957 0.0005 0.0005)
(0.00959 0.0005 0.0005)
(0.00961 0.0005 0.0005)
(0.00963 0.0005 0.0005)
(0.00965 0.0005 0.0005)
(0.00967 0.0005 0.0005)
(0.00969 0.0005 0.0005)
(0.00971 0.0005 0.0005)
(0.00973 0.0005 0.0005)
(0.00975 0.0005 0.0005)
(0.00977 0.0005 0.0005)
(0.00979 0.0005 0.0005)
(0.00981 0.0005 0.0005)
(0.00983 0.0005 0.0005)
(0.00985 0.0005 0.0005)
(0.00987 0.0005 0.0005)
(0.00989 0.0005 0.0005)
(0.00991 0.0005 0.0005)
(0.00993 0.0005 0.0005)
(0.00995 0.0005 0.0005)
(0.00997 0.0005 0.0005)
(0.00999 0.0005 0.0005)
)
;

boundaryField
{
    inlet_drug
    {
        type            calculated;
        value           uniform (0 0.0005 0.0005);
    }
    outlet
    {
        type            calculated;
        value           uniform (0.01 0.0005 0.0005);
    }
    walls
    {
        type            calculated;
        value           nonuniform List<vector> 
1000
(
(1e-05 0 0.0005)
(3e-05 0 0.0005)
(5e-05 0 0.0005)
(7e-05 0 0.0005)
(9e-05 0 0.0005)
(0.00011 0 0.0005)
(0.00013 0 0.0005)
(0.00015 0 0.0005)
(0.00017 0 0.0005)
(0.00019 0 0.0005)
(0.00021 0 0.0005)
(0.00023 0 0.0005)
(0.00025 0 0.0005)
(0.00027 0 0.0005)
(0.00029 0 0.0005)
(0.00031 0 0.0005)
(0.00033 0 0.0005)
(0.00035 0 0.0005)
(0.00037 0 0.0005)
(0.00039 0 0.0005)
(0.00041 0 0.0005)
(0.00043 0 0.0005)
(0.00045 0 0.0005)
(0.00047 0 0.0005)
(0.00049 0 0.0005)
(0.00051 0 0.0005)
(0.00053 0 0.0005)
(0.00055 0 0.0005)
(0.00057 0 0.0005)
(0.00059 0 0.0005)
(0.00061 0 0.0005)
(0.00063 0 0.0005)
(0.00065 0 0.0005)
(0.00067 0 0.0005)
(0.00069 0 0.0005)
(0.00071 0 0.0005)
(0.00073 0 0.0005)
(0.00075 0 0.0005)
(0.00077 0 0.0005)
(0.00079 0 0.0005)
(0.00081 0 0.0005)
(0.00083 0 0.0005)
(0.00085 0 0.0005)
(0.00087 0 0.0005)
(0.00089 0 0.0005)
(0.00091 0 0.0005)
(0.00093 0 0.0005)
(0.00095 0 0.0005)
(0.00097 0 0.0005)
(0.00099 0 0.0005)
(0.00101 0 0.0005)
(0.00103 0 0.0005)
(0.00105 0 0.0005)
(0.00107 0 0.0005)
(0.00109 0 0.0005)
(0.00111 0 0.0005)
(0.00113 0 0.0005)
(0.00115 0 0.0005)
(0.00117 0 0.0005)
(0.00119 0 0.0005)
(0.00121 0 0.0005)
(0.00123 0 0.0005)
(0.00125 0 0.0005)
(0.00127 0 0.0005)
(0.00129 0 0.0005)
(0.00131 0 0.0005)
(0.00133 0 0.0005)
(0.00135 0 0.0005)
(0.00137 0 0.0005)
(0.00139 0 0.0005)
(0.00141 0 0.0005)
(0.00143 0 0.0005)
(0.00145 0 0.0005)
(0.00147 0 0.0005)
(0.00149 0 0.0005)
(0.00151 0 0.0005)
(0.00153 0 0.0005)
(0.00155 0 0.0005)
(0.00157 0 0.0005)
(0.00159 0 0.0005)
(0.00161 0 0.0005)
(0.00163 0 0.0005)
(0.00165 0 0.0005)
(0.00167 0 0.0005)
(0.00169 0 0.0005)
(0.00171 0 0.0005)
(0.00173 0 0.0005)
(0.00175 0 0.0005)
(0.00177 0 0.0005)
(0.00179 0 0.0005)
(0.00181 0 0.0005)
(0.00183 0 0.0005)
(0.00185 0 0.0005)
(0.00187 0 0.0005)
(0.00189 0 0.0005)
(0.00191 0 0.0005)
(0.00193 0 0.0005)
(0.00195 0 0.0005)
(0.00197 0 0.0005)
(0.00199 0 0.0005)
(0.00201 0 0.0005)
(0.00203 0 0.0005)
(0.00205 0 0.0005)
(0.00207 0 0.0005)
(0.00209 0 0.0005)
(0.00211 0 0.0005)
(0.00213 0 0.0005)
(0.00215 0 0.0005)
(0.00217 0 0.0005)
(0.00219 0 0.0005)
(0.00221 0 0.0005)
(0.00223 0 0.0005)
(0.00225 0 0.0005)
(0.00227 0 0.0005)
(0.00229 0 0.0005)
(0.00231 0 0.0005)
(0.00233 0 0.0005)
(0.00235 0 0.0005)
(0.00237 0 0.0005)
(0.00239 0 0.0005)
(0.00241 0 0.0005)
(0.00243 0 0.0005)
(0.00245 0 0.0005)
(0.00247 0 0.0005)
(0.00249 0 0.0005)
(0.00251 0 0.0005)
(0.00253 0 0.0005)
(0.00255 0 0.0005)
(0.00257 0 0.0005)
(0.00259 0 0.0005)
(0.00261 0 0.0005)
(0.00263 0 0.0005)
(0.00265 0 0.0005)
(0.00267 0 0.0005)
(0.00269 0 0.0005)
(0.00271 0 0.0005)
(0.00273 0 0.0005)
(0.00275 0 0.0005)
(0.00277 0 0.0005)
(0.00279 0 0.0005)
(0.00281 0 0.0005)
(0.00283 0 0.0005)
(0.00285 0 0.0005)
(0.00287 0 0.0005)
(0.00289 0 0.0005)
(0.00291 0 0.0005)
(0.00293 0 0.0005)
(0.00295 0 0.0005)
(0.00297 0 0.0005)
(0.00299 0 0.0005)
(0.00301 0 0.0005)
(0.00303 0 0.0005)
(0.00305 0 0.0005)
(0.00307 0 0.0005)
(0.00309 0 0.0005)
(0.00311 0 0.0005)
(0.00313 0 0.0005)
(0.00315 0 0.0005)
(0.00317 0 0.0005)
(0.00319 0 0.0005)
(0.00321 0 0.0005)
(0.00323 0 0.0005)
(0.00325 0 0.0005)
(0.00327 0 0.0005)
(0.00329 0 0.0005)
(0.00331 0 0.0005)
(0.00333 0 0.0005)
(0.00335 0 0.0005)
(0.00337 0 0.0005)
(0.00339 0 0.0005)
(0.00341 0 0.0005)
(0.00343 0 0.0005)
(0.00345 0 0.0005)
(0.00347 0 0.0005)
(0.00349 0 0.0005)
(0.00351 0 0.0005)
(0.00353 0 0.0005)
(0.00355 0 0.0005)
(0.00357 0 0.0005)
(0.00359 0 0.0005)
(0.00361 0 0.0005)
(0.00363 0 0.0005)
(0.00365 0 0.0005)
(0.00367 0 0.0005)
(0.00369 0 0.0005)
(0.00371 0 0.0005)
(0.00373 0 0.0005)
(0.00375 0 0.0005)
(0.00377 0 0.0005)
(0.00379 0 0.0005)
(0.00381 0 0.0005)
(0.00383 0 0.0005)
(0.00385 0 0.0005)
(0.00387 0 0.0005)
(0.00389 0 0.0005)
(0.00391 0 0.0005)
(0.00393 0 0.0005)
(0.00395 0 0.0005)
(0.00397 0 0.0005)
(0.00399 0 0.0005)
(0.00401 0 0.0005)
(0.00403 0 0.0005)
(0.00405 0 0.0005)
(0.00407 0 0.0005)
(0.00409 0 0.0005)
(0.00411 0 0.0005)
(0.00413 0 0.0005)
(0.00415 0 0.0005)
(0.00417 0 0.0005)
(0.00419 0 0.0005)
(0.00421 0 0.0005)
(0.00423 0 0.0005)
(0.00425 0 0.0005)
(0.00427 0 0.0005)
(0.00429 0 0.0005)
(0.00431 0 0.0005)
(0.00433 0 0.0005)
(0.00435 0 0.0005)
(0.00437 0 0.0005)
(0.00439 0 0.0005)
(0.00441 0 0.0005)
(0.00443 0 0.0005)
(0.00445 0 0.0005)
(0.00447 0 0.0005)
(0.00449 0 0.0005)
(0.00451 0 0.0005)
(0.00453 0 0.0005)
(0.00455 0 0.0005)
(0.00457 0 0.0005)
(0.00459 0 0.0005)
(0.00461 0 0.0005)
(0.00463 0 0.0005)
(0.00465 0 0.0005)
(0.00467 0 0.0005)
(0.00469 0 0.0005)
(0.00471 0 0.0005)
(0.00473 0 0.0005)
(0.00475 0 0.0005)
(0.00477 0 0.0005)
(0.00479 0 0.0005)
(0.00481 0 0.0005)
(0.00483 0 0.0005)
(0.00485 0 0.0005)
(0.00487 0 0.0005)
(0.00489 0 0.0005)
(0.00491 0 0.0005)
(0.00493 0 0.0005)
(0.00495 0 0.0005)
(0.00497 0 0.0005)
(0.00499 0 0.0005)
(0.00501 0 0.0005)
(0.00503 0 0.0005)
(0.00505 0 0.0005)
(0.00507 0 0.0005)
(0.00509 0 0.0005)
(0.00511 0 0.0005)
(0.00513 0 0.0005)
(0.00515 0 0.0005)
(0.00517 0 0.0005)
(0.00519 0 0.0005)
(0.00521 0 0.0005)
(0.00523 0 0.0005)
(0.00525 0 0.0005)
(0.00527 0 0.0005)
(0.00529 0 0.0005)
(0.00531 0 0.0005)
(0.00533 0 0.0005)
(0.00535 0 0.0005)
(0.00537 0 0.0005)
(0.00539 0 0.0005)
(0.00541 0 0.0005)
(0.00543 0 0.0005)
(0.00545 0 0.0005)
(0.00547 0 0.0005)
(0.00549 0 0.0005)
(0.00551 0 0.0005)
(0.00553 0 0.0005)
(0.00555 0 0.0005)
(0.00557 0 0.0005)
(0.00559 0 0.0005)
(0.00561 0 0.0005)
(0.00563 0 0.0005)
(0.00565 0 0.0005)
(0.00567 0 0.0005)
(0.00569 0 0.0005)
(0.00571 0 0.0005)
(0.00573 0 0.0005)
(0.00575 0 0.0005)
(0.00577 0 0.0005)
(0.00579 0 0.0005)
(0.00581 0 0.0005)
(0.00583 0 0.0005)
(0.00585 0 0.0005)
(0.00587 0 0.0005)
(0.00589 0 0.0005)
(0.00591 0 0.0005)
(0.00593 0 0.0005)
(0.00595 0 0.0005)
(0.00597 0 0.0005)
(0.00599 0 0.0005)
(0.00601 0 0.0005)
(0.00603 0 0.0005)
(0.00605 0 0.0005)
(0.00607 0 0.0005)
(0.00609 0 0.0005)
(0.00611 0 0.0005)
(0.00613 0 0.0005)
(0.00615 0 0.0005)
(0.00617 0 0.0005)
(0.00619 0 0.0005)
(0.00621 0 0.0005)
(0.00623 0 0.0005)
(0.00625 0 0.0005)
(0.00627 0 0.0005)
(0.00629 0 0.0005)
(0.00631 0 0.0005)
(0.00633 0 0.0005)
(0.00635 0 0.0005)
(0.00637 0 0.0005)
(0.00639 0 0.0005)
(0.00641 0 0.0005)
(0.00643 0 0.0005)
(0.00645 0 0.0005)
(0.00647 0 0.0005)
(0.00649 0 0.0005)
(0.00651 0 0.0005)
(0.00653 0 0.0005)
(0.00655 0 0.0005)
(0.00657 0 0.0005)
(0.00659 0 0.0005)
(0.00661 0 0.0005)
(0.00663 0 0.0005)
(0.00665 0 0.0005)
(0.00667 0 0.0005)
(0.00669 0 0.0005)
(0.00671 0 0.0005)
(0.00673 0 0.0005)
(0.00675 0 0.0005)
(0.00677 0 0.0005)
(0.00679 0 0.0005)
(0.00681 0 0.0005)
(0.00683 0 0.0005)
(0.00685 0 0.0005)
(0.00687 0 0.0005)
(0.00689 0 0.0005)
(0.00691 0 0.0005)
(0.00693 0 0.0005)
(0.00695 0 0.0005)
(0.00697 0 0.0005)
(0.00699 0 0.0005)
(0.00701 0 0.0005)
(0.00703 0 0.0005)
(0.00705 0 0.0005)
(0.00707 0 0.0005)
(0.00709 0 0.0005)
(0.00711 0 0.0005)
(0.00713 0 0.0005)
(0.00715 0 0.0005)
(0.00717 0 0.0005)
(0.00719 0 0.0005)
(0.00721 0 0.0005)
(0.00723 0 0.0005)
(0.00725 0 0.0005)
(0.00727 0 0.0005)
(0.00729 0 0.0005)
(0.00731 0 0.0005)
(0.00733 0 0.0005)
(0.00735 0 0.0005)
(0.00737 0 0.0005)
(0.00739 0 0.0005)
(0.00741 0 0.0005)
(0.00743 0 0.0005)
(0.00745 0 0.0005)
(0.00747 0 0.0005)
(0.00749 0 0.0005)
(0.00751 0 0.0005)
(0.00753 0 0.0005)
(0.00755 0 0.0005)
(0.00757 0 0.0005)
(0.00759 0 0.0005)
(0.00761 0 0.0005)
(0.00763 0 0.0005)
(0.00765 0 0.0005)
(0.00767 0 0.0005)
(0.00769 0 0.0005)
(0.00771 0 0.0005)
(0.00773 0 0.0005)
(0.00775 0 0.0005)
(0.00777 0 0.0005)
(0.00779 0 0.0005)
(0.00781 0 0.0005)
(0.00783 0 0.0005)
(0.00785 0 0.0005)
(0.00787 0 0.0005)
(0.00789 0 0.0005)
(0.00791 0 0.0005)
(0.00793 0 0.0005)
(0.00795 0 0.0005)
(0.00797 0 0.0005)
(0.00799 0 0.0005)
(0.00801 0 0.0005)
(0.00803 0 0.0005)
(0.00805 0 0.0005)
(0.00807 0 0.0005)
(0.00809 0 0.0005)
(0.00811 0 0.0005)
(0.00813 0 0.0005)
(0.00815 0 0.0005)
(0.00817 0 0.0005)
(0.00819 0 0.0005)
(0.00821 0 0.0005)
(0.00823 0 0.0005)
(0.00825 0 0.0005)
(0.00827 0 0.0005)
(0.00829 0 0.0005)
(0.00831 0 0.0005)
(0.00833 0 0.0005)
(0.00835 0 0.0005)
(0.00837 0 0.0005)
(0.00839 0 0.0005)
(0.00841 0 0.0005)
(0.00843 0 0.0005)
(0.00845 0 0.0005)
(0.00847 0 0.0005)
(0.00849 0 0.0005)
(0.00851 0 0.0005)
(0.00853 0 0.0005)
(0.00855 0 0.0005)
(0.00857 0 0.0005)
(0.00859 0 0.0005)
(0.00861 0 0.0005)
(0.00863 0 0.0005)
(0.00865 0 0.0005)
(0.00867 0 0.0005)
(0.00869 0 0.0005)
(0.00871 0 0.0005)
(0.00873 0 0.0005)
(0.00875 0 0.0005)
(0.00877 0 0.0005)
(0.00879 0 0.0005)
(0.00881 0 0.0005)
(0.00883 0 0.0005)
(0.00885 0 0.0005)
(0.00887 0 0.0005)
(0.00889 0 0.0005)
(0.00891 0 0.0005)
(0.00893 0 0.0005)
(0.00895 0 0.0005)
(0.00897 0 0.0005)
(0.00899 0 0.0005)
(0.00901 0 0.0005)
(0.00903 0 0.0005)
(0.00905 0 0.0005)
(0.00907 0 0.0005)
(0.00909 0 0.0005)
(0.00911 0 0.0005)
(0.00913 0 0.0005)
(0.00915 0 0.0005)
(0.00917 0 0.0005)
(0.00919 0 0.0005)
(0.00921 0 0.0005)
(0.00923 0 0.0005)
(0.00925 0 0.0005)
(0.00927 0 0.0005)
(0.00929 0 0.0005)
(0.00931 0 0.0005)
(0.00933 0 0.0005)
(0.00935 0 0.0005)
(0.00937 0 0.0005)
(0.00939 0 0.0005)
(0.00941 0 0.0005)
(0.00943 0 0.0005)
(0.00945 0 0.0005)
(0.00947 0 0.0005)
(0.00949 0 0.0005)
(0.00951 0 0.0005)
(0.00953 0 0.0005)
(0.00955 0 0.0005)
(0.00957 0 0.0005)
(0.00959 0 0.0005)
(0.00961 0 0.0005)
(0.00963 0 0.0005)
(0.00965 0 0.0005)
(0.00967 0 0.0005)
(0.00969 0 0.0005)
(0.00971 0 0.0005)
(0.00973 0 0.0005)
(0.00975 0 0.0005)
(0.00977 0 0.0005)
(0.00979 0 0.0005)
(0.00981 0 0.0005)
(0.00983 0 0.0005)
(0.00985 0 0.0005)
(0.00987 0 0.0005)
(0.00989 0 0.0005)
(0.00991 0 0.0005)
(0.00993 0 0.0005)
(0.00995 0 0.0005)
(0.00997 0 0.0005)
(0.00999 0 0.0005)
(1e-05 0.001 0.0005)
(3e-05 0.001 0.0005)
(5e-05 0.001 0.0005)
(7e-05 0.001 0.0005)
(9e-05 0.001 0.0005)
(0.00011 0.001 0.0005)
(0.00013 0.001 0.0005)
(0.00015 0.001 0.0005)
(0.00017 0.001 0.0005)
(0.00019 0.001 0.0005)
(0.00021 0.001 0.0005)
(0.00023 0.001 0.0005)
(0.00025 0.001 0.0005)
(0.00027 0.001 0.0005)
(0.00029 0.001 0.0005)
(0.00031 0.001 0.0005)
(0.00033 0.001 0.0005)
(0.00035 0.001 0.0005)
(0.00037 0.001 0.0005)
(0.00039 0.001 0.0005)
(0.00041 0.001 0.0005)
(0.00043 0.001 0.0005)
(0.00045 0.001 0.0005)
(0.00047 0.001 0.0005)
(0.00049 0.001 0.0005)
(0.00051 0.001 0.0005)
(0.00053 0.001 0.0005)
(0.00055 0.001 0.0005)
(0.00057 0.001 0.0005)
(0.00059 0.001 0.0005)
(0.00061 0.001 0.0005)
(0.00063 0.001 0.0005)
(0.00065 0.001 0.0005)
(0.00067 0.001 0.0005)
(0.00069 0.001 0.0005)
(0.00071 0.001 0.0005)
(0.00073 0.001 0.0005)
(0.00075 0.001 0.0005)
(0.00077 0.001 0.0005)
(0.00079 0.001 0.0005)
(0.00081 0.001 0.0005)
(0.00083 0.001 0.0005)
(0.00085 0.001 0.0005)
(0.00087 0.001 0.0005)
(0.00089 0.001 0.0005)
(0.00091 0.001 0.0005)
(0.00093 0.001 0.0005)
(0.00095 0.001 0.0005)
(0.00097 0.001 0.0005)
(0.00099 0.001 0.0005)
(0.00101 0.001 0.0005)
(0.00103 0.001 0.0005)
(0.00105 0.001 0.0005)
(0.00107 0.001 0.0005)
(0.00109 0.001 0.0005)
(0.00111 0.001 0.0005)
(0.00113 0.001 0.0005)
(0.00115 0.001 0.0005)
(0.00117 0.001 0.0005)
(0.00119 0.001 0.0005)
(0.00121 0.001 0.0005)
(0.00123 0.001 0.0005)
(0.00125 0.001 0.0005)
(0.00127 0.001 0.0005)
(0.00129 0.001 0.0005)
(0.00131 0.001 0.0005)
(0.00133 0.001 0.0005)
(0.00135 0.001 0.0005)
(0.00137 0.001 0.0005)
(0.00139 0.001 0.0005)
(0.00141 0.001 0.0005)
(0.00143 0.001 0.0005)
(0.00145 0.001 0.0005)
(0.00147 0.001 0.0005)
(0.00149 0.001 0.0005)
(0.00151 0.001 0.0005)
(0.00153 0.001 0.0005)
(0.00155 0.001 0.0005)
(0.00157 0.001 0.0005)
(0.00159 0.001 0.0005)
(0.00161 0.001 0.0005)
(0.00163 0.001 0.0005)
(0.00165 0.001 0.0005)
(0.00167 0.001 0.0005)
(0.00169 0.001 0.0005)
(0.00171 0.001 0.0005)
(0.00173 0.001 0.0005)
(0.00175 0.001 0.0005)
(0.00177 0.001 0.0005)
(0.00179 0.001 0.0005)
(0.00181 0.001 0.0005)
(0.00183 0.001 0.0005)
(0.00185 0.001 0.0005)
(0.00187 0.001 0.0005)
(0.00189 0.001 0.0005)
(0.00191 0.001 0.0005)
(0.00193 0.001 0.0005)
(0.00195 0.001 0.0005)
(0.00197 0.001 0.0005)
(0.00199 0.001 0.0005)
(0.00201 0.001 0.0005)
(0.00203 0.001 0.0005)
(0.00205 0.001 0.0005)
(0.00207 0.001 0.0005)
(0.00209 0.001 0.0005)
(0.00211 0.001 0.0005)
(0.00213 0.001 0.0005)
(0.00215 0.001 0.0005)
(0.00217 0.001 0.0005)
(0.00219 0.001 0.0005)
(0.00221 0.001 0.0005)
(0.00223 0.001 0.0005)
(0.00225 0.001 0.0005)
(0.00227 0.001 0.0005)
(0.00229 0.001 0.0005)
(0.00231 0.001 0.0005)
(0.00233 0.001 0.0005)
(0.00235 0.001 0.0005)
(0.00237 0.001 0.0005)
(0.00239 0.001 0.0005)
(0.00241 0.001 0.0005)
(0.00243 0.001 0.0005)
(0.00245 0.001 0.0005)
(0.00247 0.001 0.0005)
(0.00249 0.001 0.0005)
(0.00251 0.001 0.0005)
(0.00253 0.001 0.0005)
(0.00255 0.001 0.0005)
(0.00257 0.001 0.0005)
(0.00259 0.001 0.0005)
(0.00261 0.001 0.0005)
(0.00263 0.001 0.0005)
(0.00265 0.001 0.0005)
(0.00267 0.001 0.0005)
(0.00269 0.001 0.0005)
(0.00271 0.001 0.0005)
(0.00273 0.001 0.0005)
(0.00275 0.001 0.0005)
(0.00277 0.001 0.0005)
(0.00279 0.001 0.0005)
(0.00281 0.001 0.0005)
(0.00283 0.001 0.0005)
(0.00285 0.001 0.0005)
(0.00287 0.001 0.0005)
(0.00289 0.001 0.0005)
(0.00291 0.001 0.0005)
(0.00293 0.001 0.0005)
(0.00295 0.001 0.0005)
(0.00297 0.001 0.0005)
(0.00299 0.001 0.0005)
(0.00301 0.001 0.0005)
(0.00303 0.001 0.0005)
(0.00305 0.001 0.0005)
(0.00307 0.001 0.0005)
(0.00309 0.001 0.0005)
(0.00311 0.001 0.0005)
(0.00313 0.001 0.0005)
(0.00315 0.001 0.0005)
(0.00317 0.001 0.0005)
(0.00319 0.001 0.0005)
(0.00321 0.001 0.0005)
(0.00323 0.001 0.0005)
(0.00325 0.001 0.0005)
(0.00327 0.001 0.0005)
(0.00329 0.001 0.0005)
(0.00331 0.001 0.0005)
(0.00333 0.001 0.0005)
(0.00335 0.001 0.0005)
(0.00337 0.001 0.0005)
(0.00339 0.001 0.0005)
(0.00341 0.001 0.0005)
(0.00343 0.001 0.0005)
(0.00345 0.001 0.0005)
(0.00347 0.001 0.0005)
(0.00349 0.001 0.0005)
(0.00351 0.001 0.0005)
(0.00353 0.001 0.0005)
(0.00355 0.001 0.0005)
(0.00357 0.001 0.0005)
(0.00359 0.001 0.0005)
(0.00361 0.001 0.0005)
(0.00363 0.001 0.0005)
(0.00365 0.001 0.0005)
(0.00367 0.001 0.0005)
(0.00369 0.001 0.0005)
(0.00371 0.001 0.0005)
(0.00373 0.001 0.0005)
(0.00375 0.001 0.0005)
(0.00377 0.001 0.0005)
(0.00379 0.001 0.0005)
(0.00381 0.001 0.0005)
(0.00383 0.001 0.0005)
(0.00385 0.001 0.0005)
(0.00387 0.001 0.0005)
(0.00389 0.001 0.0005)
(0.00391 0.001 0.0005)
(0.00393 0.001 0.0005)
(0.00395 0.001 0.0005)
(0.00397 0.001 0.0005)
(0.00399 0.001 0.0005)
(0.00401 0.001 0.0005)
(0.00403 0.001 0.0005)
(0.00405 0.001 0.0005)
(0.00407 0.001 0.0005)
(0.00409 0.001 0.0005)
(0.00411 0.001 0.0005)
(0.00413 0.001 0.0005)
(0.00415 0.001 0.0005)
(0.00417 0.001 0.0005)
(0.00419 0.001 0.0005)
(0.00421 0.001 0.0005)
(0.00423 0.001 0.0005)
(0.00425 0.001 0.0005)
(0.00427 0.001 0.0005)
(0.00429 0.001 0.0005)
(0.00431 0.001 0.0005)
(0.00433 0.001 0.0005)
(0.00435 0.001 0.0005)
(0.00437 0.001 0.0005)
(0.00439 0.001 0.0005)
(0.00441 0.001 0.0005)
(0.00443 0.001 0.0005)
(0.00445 0.001 0.0005)
(0.00447 0.001 0.0005)
(0.00449 0.001 0.0005)
(0.00451 0.001 0.0005)
(0.00453 0.001 0.0005)
(0.00455 0.001 0.0005)
(0.00457 0.001 0.0005)
(0.00459 0.001 0.0005)
(0.00461 0.001 0.0005)
(0.00463 0.001 0.0005)
(0.00465 0.001 0.0005)
(0.00467 0.001 0.0005)
(0.00469 0.001 0.0005)
(0.00471 0.001 0.0005)
(0.00473 0.001 0.0005)
(0.00475 0.001 0.0005)
(0.00477 0.001 0.0005)
(0.00479 0.001 0.0005)
(0.00481 0.001 0.0005)
(0.00483 0.001 0.0005)
(0.00485 0.001 0.0005)
(0.00487 0.001 0.0005)
(0.00489 0.001 0.0005)
(0.00491 0.001 0.0005)
(0.00493 0.001 0.0005)
(0.00495 0.001 0.0005)
(0.00497 0.001 0.0005)
(0.00499 0.001 0.0005)
(0.00501 0.001 0.0005)
(0.00503 0.001 0.0005)
(0.00505 0.001 0.0005)
(0.00507 0.001 0.0005)
(0.00509 0.001 0.0005)
(0.00511 0.001 0.0005)
(0.00513 0.001 0.0005)
(0.00515 0.001 0.0005)
(0.00517 0.001 0.0005)
(0.00519 0.001 0.0005)
(0.00521 0.001 0.0005)
(0.00523 0.001 0.0005)
(0.00525 0.001 0.0005)
(0.00527 0.001 0.0005)
(0.00529 0.001 0.0005)
(0.00531 0.001 0.0005)
(0.00533 0.001 0.0005)
(0.00535 0.001 0.0005)
(0.00537 0.001 0.0005)
(0.00539 0.001 0.0005)
(0.00541 0.001 0.0005)
(0.00543 0.001 0.0005)
(0.00545 0.001 0.0005)
(0.00547 0.001 0.0005)
(0.00549 0.001 0.0005)
(0.00551 0.001 0.0005)
(0.00553 0.001 0.0005)
(0.00555 0.001 0.0005)
(0.00557 0.001 0.0005)
(0.00559 0.001 0.0005)
(0.00561 0.001 0.0005)
(0.00563 0.001 0.0005)
(0.00565 0.001 0.0005)
(0.00567 0.001 0.0005)
(0.00569 0.001 0.0005)
(0.00571 0.001 0.0005)
(0.00573 0.001 0.0005)
(0.00575 0.001 0.0005)
(0.00577 0.001 0.0005)
(0.00579 0.001 0.0005)
(0.00581 0.001 0.0005)
(0.00583 0.001 0.0005)
(0.00585 0.001 0.0005)
(0.00587 0.001 0.0005)
(0.00589 0.001 0.0005)
(0.00591 0.001 0.0005)
(0.00593 0.001 0.0005)
(0.00595 0.001 0.0005)
(0.00597 0.001 0.0005)
(0.00599 0.001 0.0005)
(0.00601 0.001 0.0005)
(0.00603 0.001 0.0005)
(0.00605 0.001 0.0005)
(0.00607 0.001 0.0005)
(0.00609 0.001 0.0005)
(0.00611 0.001 0.0005)
(0.00613 0.001 0.0005)
(0.00615 0.001 0.0005)
(0.00617 0.001 0.0005)
(0.00619 0.001 0.0005)
(0.00621 0.001 0.0005)
(0.00623 0.001 0.0005)
(0.00625 0.001 0.0005)
(0.00627 0.001 0.0005)
(0.00629 0.001 0.0005)
(0.00631 0.001 0.0005)