/*--------------------------------*- C++ -*----------------------------------*\
| =========                 |                                                 |
| \\      /  F ield         | OpenFOAM: The Open Source CFD Toolbox           |
|  \\    /   O peration     | Version:  2406                                  |
|   \\  /    A nd           | Website:  www.openfoam.com                      |
|    \\/     M anipulation  |                                                 |
\*---------------------------------------------------------------------------*/
FoamFile
{
    version     2.0;
    format      ascii;
    arch        "LSB;label=32;scalar=64";
    class       volScalarField;
    location    "2000";
    object      p;
}
// * * * * * * * * * * * * * * * * * * * * * * * * * * * * * * * * * * * * * //

dimensions      [0 2 -2 0 0 0 0];

internalField   nonuniform List<scalar> 
9800
(
-0.0025795589
-0.0025642277
-0.0024835109
-0.0023380563
-0.002148423
-0.0019315746
-0.0017030031
-0.0014759193
-0.0012602249
-0.0010622465
-0.00088519217
-0.0007298649
-0.00059539405
-0.00047993915
-0.00038119077
-0.00029666842
-0.00022399746
-0.00016102007
-0.00010584023
-5.685764e-05
-1.2753345e-05
2.7535585e-05
6.4846796e-05
9.9824992e-05
0.0001329526
0.00016457823
0.00019494271
0.00022420231
0.00025244934
0.00027972902
0.00030605316
0.00033141139
0.00035578035
0.00037913106
0.00040143478
0.00042266757
0.00044281373
0.0004618682
0.0004798381
0.00049674351
0.00051261755
0.00052750581
0.0005414653
0.00055456292
0.00056687347
0.00057847746
0.00058945865
0.00059990139
0.00060988808
0.00061949658
0.00062879786
0.00063785389
0.00064671594
0.00065542326
0.00066400218
0.00067246586
0.00068081461
0.00068903657
0.00069710874
0.00070499848
0.00071266532
0.00072006304
0.00072714194
0.00073385111
0.00074014064
0.00074596364
0.00075127804
0.00075604793
0.00076024468
0.00076384759
0.00076684418
0.00076923019
0.00077100919
0.00077219206
0.00077279619
0.00077284463
0.00077236509
0.00077138894
0.0007699502
0.00076808457
0.00076582847
0.0007632182
0.00076028914
0.00075707502
0.00075360735
0.00074991485
0.00074602308
0.00074195413
0.00073772642
0.0007333546
0.00072884968
0.0007242191
0.00071946704
0.00071459482
0.00070960132
0.00070448353
0.00069923715
0.00069385717
0.00068833852
0.00068267662
0.00067686793
0.00067091045
0.00066480408
0.00065855091
0.00065215542
0.00064562455
0.00063896765
0.00063219635
0.00062532432
0.00061836696
0.00061134103
0.00060426415
0.00059715445
0.00059002996
0.00058290823
0.00057580582
0.00056873792
0.00056171791
0.00055475712
0.00054786452
0.00054104658
0.00053430715
0.00052764747
0.00052106617
0.00051455945
0.00050812121
0.00050174332
0.00049541586
0.00048912751
0.0004828658
0.00047661752
0.00047036906
0.00046410673
0.00045781714
0.00045148746
0.00044510574
0.00043866114
0.00043214416
0.0004255468
0.00041886271
0.00041208729
0.00040521777
0.0003982532
0.00039119448
0.00038404431
0.0003768071
0.0003694889
0.00036209724
0.00035464099
0.00034713016
0.00033957575
0.00033198946
0.00032438352
0.00031677044
0.00030916277
0.00030157282
0.00029401251
0.00028649306
0.00027902485
0.00027161718
0.00026427812
0.00025701439
0.00024983119
0.00024273219
0.00023571945
0.00022879339
0.00022195286
0.00021519516
0.00020851618
0.00020191046
0.00019537138
0.00018889133
0.00018246188
0.00017607398
0.00016971815
0.00016338474
0.00015706406
0.00015074661
0.00014442328
0.00013808549
0.00013172533
0.00012533574
0.00011891056
0.00011244463
0.0001059339
9.9375387e-05
9.276726e-05
8.6108807e-05
7.9400426e-05
7.2643579e-05
6.5840748e-05
5.8995374e-05
5.2111789e-05
4.519515e-05
3.8251372e-05
3.1287176e-05
2.4310129e-05
1.7327265e-05
1.034336e-05
3.4019821e-06
-0.0025749608
-0.0025566162
-0.0024815633
-0.0023445211
-0.0021621679
-0.0019499158
-0.0017235419
-0.0014970272
-0.0012808951
-0.0010818849
-0.00090346962
-0.00074661413
-0.00061050722
-0.00049336747
-0.00039293549
-0.00030675781
-0.00023248127
-0.00016797014
-0.0001113587
-6.1066295e-05
-1.5785785e-05
2.5540631e-05
6.3751049e-05
9.9495232e-05
0.00013326396
0.00016541634
0.0001962049
0.00022579834
0.00025430094
0.0002817692
0.00030822545
0.00033366884
0.00035808442
0.00038145047
0.00040374447
0.00042494759
0.00044504826
0.00046404464
0.00048194622
0.00049877475
0.00051456436
0.00052936118
0.00054322233
0.00055621455
0.00056841233
0.00057989584
0.00059074854
0.00060105469
0.00061089685
0.00062035334
0.00062949596
0.00063838791
0.00064708201
0.00065561939
0.00066402847
0.00067232468
0.00068051076
0.00068857728
0.00069650364
0.00070425935
0.00071180585
0.00071909847
0.00072608867
0.00073272623
0.00073896149
0.00074474737
0.00075004114
0.00075480591
0.00075901171
0.00076263626
0.00076566531
0.00076809269
0.00076992003
0.00077115628
0.00077181696
0.00077192334
0.00077150152
0.00077058143
0.00076919586
0.00076737948
0.00076516793
0.00076259694
0.00075970156
0.00075651542
0.00075307012
0.0007493947
0.00074551519
0.0007414543
0.00073723119
0.00073286139
0.00072835677
0.00072372568
0.00071897322
0.00071410153
0.00070911025
0.00070399703
0.00069875807
0.00069338873
0.00068788412
0.00068223969
0.00067645178
0.0006705181
0.00066443815
0.0006582135
0.00065184802
0.00064534797
0.00063872202
0.00063198109
0.00062513818
0.00061820807
0.00061120693
0.00060415196
0.00059706089
0.0005899515
0.0005828412
0.00057574653
0.00056868274
0.00056166342
0.00055470015
0.00054780227
0.00054097667
0.00053422767
0.00052755701
0.00052096386
0.0005144449
0.00050799457
0.00050160519
0.00049526731
0.00048896997
0.00048270106
0.00047644764
0.0004701963
0.0004639335
0.00045764593
0.00045132077
0.00044494603
0.00043851075
0.00043200528
0.00042542142
0.00041875257
0.00041199385
0.00040514217
0.00039819626
0.00039115668
0.00038402577
0.00037680759
0.00036950783
0.00036213371
0.00035469376
0.00034719774
0.00033965635
0.00033208112
0.00032448408
0.00031687762
0.00030927418
0.00030168608
0.00029412522
0.0002866029
0.0002791296
0.00027171478
0.00026436669
0.00025709229
0.00024989703
0.00024278488
0.00023575816
0.00022881764
0.00022196245
0.00021519022
0.0002084971
0.00020187793
0.00019532635
0.00018883496
0.00018239551
0.00017599912
0.00016963643
0.00016329785
0.00015697374
0.00015065461
0.0001443313
0.00013799517
0.00013163822
0.00012525323
0.00011883392
0.00011237495
0.00010587207
9.9322116e-05
9.2723032e-05
8.6073898e-05
7.9374891e-05
7.2627259e-05
6.5833266e-05
5.8996138e-05
5.2119992e-05
4.5209756e-05
3.827111e-05
3.1310519e-05
2.433502e-05
1.7350153e-05
1.0358537e-05
3.4092499e-06
-0.0026901551
-0.0026385603
-0.0025442835
-0.0023954184
-0.0022031808
-0.0019820966
-0.0017483272
-0.0015161407
-0.0012959935
-0.0010942837
-0.00091409482
-0.00075602057
-0.00061897592
-0.00050100493
-0.00039974127
-0.00031271005
-0.00023755671
-0.00017215704
-0.00011466265
-6.3510861e-05
-1.7410676e-05
2.4682685e-05
6.3597612e-05
9.9978386e-05
0.00013431305
0.00016696061
0.00019817526
0.00022812803
0.00025692697
0.00028463329
0.00031127427
0.00033685405
0.00036136244
0.00038478223
0.00040709498
0.00042828559
0.00044834576
0.0004672765
0.00048508983
0.00050180965
0.00051747197
0.00053212459
0.0005458262
0.00055864501
0.00057065704
0.00058194403
0.00059259117
0.00060268464
0.00061230907
0.0006215451
0.00063046695
0.00063914041
0.00064762092
0.00065595225
0.0006641653
0.00067227772
0.00068029431
0.00068820752
0.00069599819
0.00070363686
0.0007110855
0.00071829949
0.00072522985
0.00073182554
0.00073803567
0.00074381167
0.00074910906
0.00075388909
0.00075811983
0.00076177702
0.00076484449
0.00076731422
0.00076918612
0.00077046757
0.00077117267
0.00077132149
0.0007709391
0.00077005461
0.00076870017
0.00076691007
0.00076471971
0.00076216482
0.00075928062
0.0007561011
0.00075265835
0.00074898206
0.00074509902
0.00074103275
0.0007368033
0.00073242705
0.00072791675
0.00072328153
0.00071852718
0.00071365642
0.00070866932
0.00070356378
0.00069833611
0.00069298159
0.00068749512
0.00068187178
0.00067610742
0.00067019915
0.00066414581
0.00065794827
0.00065160969
0.00064513566
0.00063853416
0.00063181558
0.0006249924
0.00061807903
0.00061109139
0.00060404649
0.00059696206
0.00058985596
0.00058274578
0.00057564836
0.00056857932
0.00056155267
0.00055458049
0.00054767261
0.00054083644
0.00053407684
0.00052739601
0.00052079359
0.00051426669
0.00050781008
0.00050141639
0.0004950764
0.00048877931
0.00048251309
0.00047626483
0.00047002108
0.00046376823
0.00045749278
0.00045118173
0.00044482284
0.0004384049
0.00043191793
0.00042535341
0.0004187044
0.00041196568
0.0004051338
0.00039820715
0.00039118594
0.0003840722
0.00037686968
0.00036958382
0.00036222158
0.00035479132
0.00034730262
0.00033976611
0.00033219323
0.00032459604
0.00031698696
0.00030937854
0.00030178323
0.00029421313
0.00028667976
0.00027919387
0.0002717652
0.00026440234
0.00025711256
0.00024990166
0.00024277392
0.00023573201
0.000228777
0.0002219083
0.00021512381
0.00020841988
0.00020179154
0.00019523255
0.00018873563
0.00018229257
0.0001758945
0.00016953202
0.00016319548
0.00015687512
0.00015056131
0.00014424473
0.00013791655
0.00013156855
0.00012519332
0.00011878431
0.00011233599
0.00010584385
9.9304502e-05
9.2715673e-05
8.6076226e-05
7.9386135e-05
7.2646455e-05
6.5859268e-05
5.9027624e-05
5.2155468e-05
4.5247551e-05
3.8309353e-05
3.1347102e-05
2.4367559e-05
1.7375656e-05
1.0370816e-05
3.4083461e-06
-0.0029889767
-0.0028224227
-0.0026532976
-0.0024645611
-0.0022464158
-0.0020075917
-0.0017624524
-0.0015236455
-0.0013000141
-0.0010968453
-0.00091636211
-0.00075851857
-0.00062186921
-0.00050424444
-0.00040316806
-0.0003161372
-0.00024080558
-0.00017507527
-0.0001171309
-6.5443733e-05
-1.8753502e-05
2.3958159e-05
6.3497414e-05
0.00010049357
0.00013542066
0.00016862342
0.00020034575
0.00023075347
0.00025995182
0.0002880007
0.00031492729
0.00034073656
0.00036541996
0.00038896247
0.00041134824
0.00043256509
0.00045260784
0.0004714808
0.00048919932
0.00050579075
0.0005212946
0.0005357622
0.00054925581
0.0005618473
0.00057361637
0.00058464854
0.00059503281
0.00060485916
0.00061421606
0.00062318784
0.00063185233
0.00064027863
0.00064852526
0.00065663863
0.0006646519
0.00067258441
0.00068044212
0.00068821826
0.00069589392
0.00070343931
0.00071081551
0.0007179765
0.00072487152
0.00073144743
0.00073765107
0.00074343151
0.00074874196
0.00075354142
0.00075779589
0.00076147926
0.00076457374
0.00076706991
0.00076896655
0.00077027012
0.00077099403
0.00077115786
0.00077078633
0.00076990842
0.00076855629
0.00076676433
0.00076456824
0.00076200414
0.00075910773
0.00075591359
0.00075245451
0.0007487609
0.0007448603
0.00074077702
0.00073653187
0.00073214192
0.00072762052
0.00072297734
0.00071821853
0.00071334704
0.000708363
0.00070326423
0.00069804678
0.00069270556
0.00068723494
0.0006816294
0.00067588409
0.00066999543
0.00066396152
0.00065778255
0.00065146103
0.00064500198
0.00063841295
0.00063170395
0.00062488727
0.00061797721
0.00061098973
0.00060394203
0.00059685208
0.00058973813
0.00058261822
0.00057550967
0.00056842866
0.00056138976
0.0005544056
0.00054748654
0.00054064049
0.00053387273
0.00052718584
0.00052057975
0.00051405178
0.00050759684
0.00050120761
0.00049487485
0.00048858766
0.00048233385
0.0004761003
0.00046987328
0.00046363888
0.00045738327
0.0004510931
0.00044475574
0.00043835961
0.00043189437
0.00042535111
0.00041872255
0.00041200312
0.00040518905
0.00039827845
0.00039127127
0.00038416931
0.00037697614
0.00036969704
0.0003623389
0.00035491002
0.00034742001
0.00033987953
0.00033230016
0.00032469411
0.000317074
0.00030945264
0.00030184275
0.00029425677
0.00028670657
0.00027920323
0.0002717569
0.00026437651
0.00025706971
0.00024984264
0.00024269991
0.00023564448
0.00022867767
0.0002217991
0.00021500682
0.0002082973
0.00020166562
0.00019510555
0.00018860976
0.00018216996
0.00017577712
0.0001694217
0.00016309383
0.00015678352
0.0001504809
0.00014417637
0.00013786084
0.00013152582
0.00012516362
0.00011876744
0.00011233148
0.00010585102
9.9322449e-05
9.2743295e-05
8.6112249e-05
7.9429134e-05
7.2694872e-05
6.5911436e-05
5.9081781e-05
5.2209769e-05
4.5300076e-05
3.8358098e-05
3.1389953e-05
2.440229e-05
1.7400158e-05
1.0381472e-05
3.4088515e-06
-0.003716061
-0.0030999139
-0.0027339197
-0.0025001627
-0.0022569848
-0.0020013079
-0.0017513024
-0.0015138011
-0.0012935317
-0.0010943263
-0.00091759873
-0.00076280918
-0.00062836266
-0.00051212604
-0.00041173447
-0.00032482148
-0.00024917352
-0.00018281034
-0.00012401452
-7.1336966e-05
-2.3576823e-05
2.0240815e-05
6.0893945e-05
9.8980086e-05
0.00013493895
0.00016909949
0.00020169841
0.00023289611
0.00026279454
0.00029145223
0.00031889663
0.00034513437
0.00037015965
0.00039396108
0.00041652717
0.00043785064
0.00045793163
0.00047678008
0.00049441724
0.00051087645
0.00052620334
0.00054045538
0.00055370102
0.00056601824
0.00057749281
0.0005882162
0.00059828321
0.00060778942
0.00061682858
0.00062548998
0.00063385593
0.00064199951
0.00064998256
0.00065785415
0.00066564944
0.00067338905
0.00068107951
0.00068871408
0.00069627334
0.00070372628
0.00071103214
0.0007181426
0.00072500425
0.00073156107
0.00073775703
0.00074353835
0.00074885559
0.00075366536
0.00075793161
0.00076162652
0.0007647309
0.00076723432
0.00076913481
0.00077043834
0.00077115809
0.00077131355
0.00077092957
0.00077003532
0.0007686633
0.00076684832
0.00076462657
0.00076203475
0.0007591092
0.00075588517
0.00075239617
0.00074867333
0.00074474494
0.000740636
0.00073636795
0.00073195844
0.00072742126
0.0007227664
0.00071800017
0.00071312552
0.00070814243
0.0007030484
0.000697839
0.00069250854
0.0006870507
0.00068145919
0.00067572838
0.00066985389
0.00066383308
0.00065766544
0.00065135292
0.00064490007
0.00063831413
0.00063160493
0.00062478475
0.00061786803
0.00061087098
0.00060381119
0.00059670714
0.00058957764
0.00058244137
0.00057531632
0.00056821931
0.00056116556
0.00055416829
0.00054723841
0.00054038426
0.00053361148
0.00052692292
0.00052031865
0.00051379605
0.00050734999
0.00050097301
0.00049465562
0.00048838666
0.00048215357
0.00047594282
0.00046974026
0.0004635315
0.00045730224
0.00045103866
0.00044472767
0.00043835724
0.0004319166
0.00042539644
0.00041878913
0.00041208875
0.00040529126
0.00039839451
0.00039139825
0.00038430413
0.00037711562
0.00036983797
0.00036247806
0.00035504428
0.00034754634
0.00033999512
0.00033240242
0.00032478074
0.00031714304
0.00030950248
0.00030187222
0.00029426508
0.00028669339
0.00027916867
0.0002717015
0.00026430124
0.00025697593
0.00024973208
0.00024257462
0.00023550678
0.00022853009
0.00022164433
0.00021484762
0.00020813648
0.00020150593
0.00019494967
0.0001884602
0.00018202904
0.00017564693
0.00016930402
0.00016299015
0.000156695
0.00015040835
0.00014412029
0.00013782135
0.00013150273
0.00012515644
0.00011877537
0.00011235347
0.00010588576
9.9368435e-05
9.2798842e-05
8.6175527e-05
7.9498199e-05
7.2767698e-05
6.5985941e-05
5.9155858e-05
5.2281302e-05
4.5366966e-05
3.8418273e-05
3.1441376e-05
2.4442953e-05
1.7428645e-05
1.0395871e-05
3.4160074e-06
-0.005083642
-0.0034357117
-0.002755274
-0.0024857281
-0.0022222142
-0.0019583822
-0.0017166772
-0.0014927081
-0.001285009
-0.0010961714
-0.00092741836
-0.00077823398
-0.00064729893
-0.00053287395
-0.00043298191
-0.00034559651
-0.00026878734
-0.00020080182
-0.00014009665
-8.5357172e-05
-3.5457761e-05
1.0514192e-05
5.325071e-05
9.3291628e-05
0.00013106738
0.00016689858
0.00020101353
0.00023356874
0.00026466603
0.0002943665
0.00032270219
0.00034968584
0.00037531892
0.00039959825
0.00042252117
0.00044408968
0.00046431355
0.00048321252
0.00050081767
0.0005171722
0.00053233145
0.00054636244
0.00055934288
0.00057135972
0.00058250737
0.00059288547
0.00060259651
0.00061174325
0.00062042598
0.00062873984
0.00063677229
0.00064460071
0.00065229037
0.0006598929
0.00066744508
0.00067496837
0.00068246922
0.00068994043
0.0006973618
0.00070470078
0.00071191439
0.00071895164
0.00072575618
0.00073226897
0.00073843098
0.00074418566
0.00074948107
0.00075427167
0.00075851966
0.00076219582
0.00076527999
0.00076776106
0.00076963669
0.00077091269
0.00077160225
0.00077172503
0.00077130611
0.00077037499
0.00076896453
0.00076710995
0.0007648479
0.00076221553
0.00075924969
0.00075598618
0.00075245902
0.00074869993
0.00074473773
0.00074059795
0.00073630247
0.00073186934
0.00072731264
0.00072264249
0.00071786523
0.00071298368
0.00070799753
0.00070290384
0.00069769765
0.00069237259
0.00068692161
0.00068133763
0.00067561425
0.00066974632
0.00066373051
0.00065756572
0.00065125344
0.00064479789
0.00063820612
0.00063148798
0.00062465588
0.00061772454
0.00061071062
0.00060363226
0.00059650854
0.00058935899
0.00058220299
0.00057505926
0.00056794531
0.00056087701
0.00055386812
0.00054693004
0.00054007146
0.00053329828
0.00052661346
0.00052001709
0.00051350645
0.00050707618
0.00050071853
0.00049442363
0.00048817986
0.00048197417
0.00047579249
0.00046962013
0.00046344213
0.00045724365
0.00045101035
0.00044472862
0.00043838597
0.00043197118
0.00042547458
0.00041888816
0.00041220575
0.00040542304
0.00039853769
0.00039154933
0.00038445952
0.0003772717
0.00036999117
0.00036262489
0.0003551814
0.00034767066
0.00034010381
0.00033249297
0.00032485101
0.00031719132
0.00030952751
0.00030187318
0.00029424166
0.00028664576
0.00027909751
0.00027160792
0.00026418683
0.00025684266
0.00024958229
0.00024241097
0.00023533216
0.00022834756
0.00022145707
0.00021465882
0.00020794931
0.00020132346
0.00019477478
0.00018829556
0.00018187703
0.00017550961
0.00016918312
0.00016288699
0.00015661054
0.00015034314
0.00014407448
0.00013779473
0.00013149473
0.00012516614
0.00011880157
0.00011239467
0.00010594026
9.9434302e-05
9.2874017e-05
8.6257826e-05
7.9585361e-05
7.2857422e-05
6.6075924e-05
5.9243825e-05
5.2365044e-05
4.5444364e-05
3.8487333e-05
3.150026e-05
2.4489961e-05
1.7462925e-05
1.0416153e-05
3.432616e-06
-0.0024117643
-0.0022799118
-0.0022443596
-0.0021924625
-0.0020457712
-0.0018564048
-0.0016620266
-0.0014702729
-0.0012855324
-0.0011129531
-0.00095531687
-0.00081322532
-0.00068623021
-0.00057331985
-0.00047312788
-0.0003841317
-0.00030480771
-0.00023371683
-0.00016952923
-0.00011109907
-5.749674e-05
-7.9668309e-06
3.8140302e-05
8.1346565e-05
0.0001220541
0.00016056397
0.00019709627
0.00023180744
0.00026480458
0.00029615774
0.00032591053
0.00035408901
0.00038070912
0.00040578284
0.00042932308
0.00045134752
0.0004718816
0.0004909605
0.00050863046
0.00052494939
0.00053998684
0.00055382343
0.00056654982
0.00057826517
0.00058907524
0.0005990902
0.00060842217
0.00061718252
0.00062547918
0.0006334139
0.00064107969
0.00064855842
0.0006559188
0.00066321484
0.00067048474
0.00067775044
0.00068501794
0.00069227891
0.00069951233
0.00070668463
0.00071375091
0.00072065782
0.00072734647
0.00073375532
0.00073982298
0.00074549078
0.00075070497
0.00075541861
0.00075959279
0.00076319759
0.00076621237
0.00076862581
0.00077043548
0.00077164726
0.00077227443
0.00077233677
0.00077185944
0.00077087204
0.00076940745
0.00076750095
0.00076518918
0.00076250933
0.00075949829
0.00075619194
0.00075262442
0.00074882758
0.00074483041
0.00074065861
0.00073633426
0.00073187552
0.00072729657
0.00072260755
0.00071781473
0.00071292073
0.00070792497
0.00070282411
0.0006976127
0.00069228383
0.00068682983
0.000681243
0.00067551631
0.00066964404
0.00066362236
0.00065744978
0.00065112747
0.00064465951
0.00063805297
0.00063131779
0.00062446669
0.00061751479
0.00061047927
0.00060337883
0.00059623325
0.00058906273
0.00058188735
0.00057472649
0.00056759828
0.00056051912
0.00055350322
0.00054656229
0.00053970525
0.00053293808
0.00052626371
0.00051968207
0.0005131902
0.00050678237
0.00050045039
0.00049418392
0.00048797075
0.00048179728
0.00047564884
0.00046951015
0.00046336567
0.00045720001
0.00045099829
0.00044474646
0.00043843156
0.000432042
0.00042556778
0.00041900062
0.00041233409
0.00040556375
0.00039868712
0.00039170376
0.00038461523
0.00037742501
0.00037013846
0.00036276271
0.00035530654
0.00034778015
0.00034019501
0.00033256361
0.00032489925
0.00031721573
0.00030952716
0.00030184761
0.00029419092
0.00028657038
0.00027899852
0.00027148681
0.00026404552
0.00025668346
0.00024940785
0.00024222422
0.00023513624
0.00022814575
0.00022125269
0.0002144552
0.00020774967
0.0002011309
0.00019459219
0.00018812555
0.00018172192
0.00017537135
0.00016906327
0.00016278672
0.00015653059
0.00015028387
0.00014403582
0.00013777624
0.0001314956
0.00012518523
0.00011883745
0.00011244567
0.00010600446
9.9509633e-05
9.2958271e-05
8.6348709e-05
7.9680533e-05
7.2954537e-05
6.6172673e-05
5.933797e-05
5.2454456e-05
4.552706e-05
3.8561511e-05
3.1564359e-05
2.4542578e-05
1.7503652e-05
1.0443709e-05
3.4618707e-06
-0.0022809324
-0.0023910091
-0.0023247803
-0.0021739196
-0.0020054424
-0.0018311829
-0.0016553842
-0.0014819189
-0.0013143502
-0.0011558397
-0.0010083949
-0.00087283722
-0.00074920584
-0.0006370384
-0.00053552541
-0.00044363522
-0.00036027875
-0.00028438769
-0.00021498861
-0.0001512261
-9.2330477e-05
-3.7636851e-05
1.3409275e-05
6.1254751e-05
0.0001062526
0.00014867814
0.00018874242
0.00022660415
0.00026238069
0.00029615796
0.00032799912
0.00035795208
0.00038605588
0.00041234611
0.00043685931
0.00045963647
0.00048072569
0.00050018414
0.00051807913
0.00053448873
0.00054950158
0.00056321631
0.0005757404
0.00058718856
0.00059768085
0.00060734038
0.00061629078
0.00062465359
0.00063254548
0.00064007556
0.00064734284
0.00065443393
0.0006614211
0.0006683608
0.0006752927
0.00068223934
0.00068920648
0.00069618428
0.00070315004
0.00071006995
0.00071689899
0.00072358259
0.00073006046
0.00073626968
0.00074214772
0.00074763502
0.00075267726
0.00075722717
0.00076124581
0.00076470335
0.00076757939
0.00076986285
0.00077155155
0.00077265147
0.00077317589
0.00077314441
0.00077258188
0.00077151741
0.0007699833
0.00076801413
0.00076564584
0.00076291488
0.00075985744
0.00075650875
0.00075290241
0.0007490698
0.00074503953
0.00074083704
0.00073648419
0.00073199899
0.0007273955
0.00072268373
0.00071786982
0.00071295623
0.00070794217
0.00070282403
0.00069759607
0.00069225101
0.00068678082
0.00068117745
0.00067543351
0.00066954298
0.0006635018
0.00065730832
0.00065096368
0.00064447202
0.00063784056
0.00063107957
0.00062420214
0.0006172239
0.00061016256
0.00060303747
0.00059586901
0.00058867803
0.00058148521
0.00057431047
0.00056717241
0.0005600878
0.00055307111
0.00054613419
0.00053928597
0.00053253232
0.00052587595
0.00051931648
0.00051285051
0.00050647181
0.00050017166
0.00049393908
0.00048776127
0.00048162398
0.00047551193
0.00046940923
0.00046329978
0.00045716768
0.00045099758
0.000444775
0.00043848663
0.00043212059
0.00042566661
0.00041911622
0.00041246287
0.00040570202
0.00039883117
0.00039184988
0.00038475976
0.00037756439
0.00037026929
0.0003628818
0.00035541092
0.00034786718
0.00034026237
0.00033260938
0.00032492192
0.00031721422
0.00030950087
0.0003017964
0.00029411515
0.00028647087
0.00027887654
0.00027134409
0.00026388416
0.00025650594
0.00024921695
0.00024202295
0.00023492779
0.00022793339
0.00022103973
0.00021424489
0.00020754517
0.0002009352
0.00019440804
0.00018795543
0.00018156796
0.00017523532
0.00016894656
0.00016269031
0.00015645504
0.00015022934
0.00014400208
0.0001377627
0.00013150131
0.00012520894
0.00011887764
0.00011250057
0.00010607214
9.9587992e-05
9.3045114e-05
8.6441779e-05
7.9777554e-05
7.3053261e-05
6.6270912e-05
5.9433642e-05
5.2545619e-05
4.5611951e-05
3.8638574e-05
3.1632307e-05
2.4600237e-05
1.7551123e-05
1.0478375e-05
3.505681e-06
-0.0022367364
-0.002237472
-0.0021591884
-0.0020459618
-0.0019255954
-0.0017934996
-0.0016504285
-0.0015030553
-0.0013565638
-0.0012141976
-0.001078192
-0.0009499372
-0.00083006752
-0.00071869819
-0.00061561842
-0.00052032391
-0.0004322013
-0.00035062076
-0.00027496642
-0.00020464128
-0.00013910012
-7.7866446e-05
-2.0532689e-05
3.3245556e-05
8.3755691e-05
0.00013123479
0.00017587653
0.00021783826
0.00025724787
0.00029421024
0.0003288131
0.00036113237
0.00039123698
0.00041919302
0.00044506738
0.00046893071
0.00049085972
0.00051093894
0.00052926167
0.00054593052
0.0005610572
0.00057476185
0.00058717188
0.00059842031
0.00060864383
0.00061798045
0.00062656701
0.00063453651
0.00064201539
0.00064912091
0.00065595868
0.00066262047
0.00066918242
0.00067570377
0.00068222606
0.00068877299
0.0006953508
0.00070194947
0.00070854477
0.0007151016
0.00072157626
0.00072791601
0.00073406096
0.00073994852
0.00074551666
0.00075070653
0.00075546475
0.00075974507
0.00076350964
0.00076672968
0.0007693857
0.00077146729
0.00077297264
0.00077390776
0.00077428561
0.0007741251
0.00077345008
0.00077228837
0.00077067079
0.00076863029
0.00076620113
0.00076341808
0.00076031572
0.00075692778
0.00075328653
0.00074942219
0.00074536242
0.00074113189
0.00073675185
0.00073223988
0.00072760973
0.00072287122
0.00071803031
0.0007130894
0.00070804758
0.00070290121
0.00069764443
0.00069226992
0.00068676956
0.00068113522
0.00067535949
0.00066943635
0.00066336177
0.00065713423
0.00065075506
0.00064422867
0.00063756264
0.00063076766
0.00062385733
0.0006168478
0.00060975739
0.00060260602
0.00059541467
0.0005882047
0.0005809973
0.00057381278
0.00056667004
0.00055958603
0.00055257527
0.00054564955
0.00053881761
0.00053208501
0.00052545407
0.0005189239
0.00051249052
0.00050614709
0.00049988422
0.00049369025
0.0004875517
0.00048145367
0.00047538024
0.00046931496
0.00046324121
0.00045714261
0.00045100341
0.0004448088
0.00043854521
0.00043220055
0.00042576439
0.00041922817
0.00041258531
0.00040583124
0.00039896353
0.00039198181
0.0003848878
0.00037768524
0.00037037984
0.00036297916
0.00035549249
0.00034793064
0.00034030578
0.00033263116
0.00032492088
0.00031718962
0.00030945238
0.00030172417
0.00029401974
0.00028635331
0.00027873826
0.00027118692
0.00026371031
0.00025631791
0.00024901753
0.00024181511
0.00023471465
0.00022771811
0.00022082547
0.00021403475
0.00020734214
0.00020074208
0.00019422738
0.0001877895
0.0001814187
0.00017510431
0.00016883499
0.00016259897
0.00015638436
0.00015017933
0.00014397241
0.00013775266
0.00013150992
0.00012523491
0.00011891943
0.00011255646
0.00010614022
9.9666271e-05
9.3131493e-05
8.6534131e-05
7.9873757e-05
7.3151233e-05
6.6368654e-05
5.9529271e-05
5.2637402e-05
4.5698342e-05
3.8718226e-05
3.1704141e-05
2.4663166e-05
1.7605646e-05
1.0520027e-05
3.5655851e-06
-0.0021445006
-0.0021285111
-0.0020785761
-0.0019990517
-0.0019013429
-0.0017895631
-0.0016674905
-0.0015401289
-0.0014112983
-0.0012834901
-0.0011585421
-0.0010378335
-0.00092226955
-0.00081227104
-0.0007079708
-0.00060936709
-0.00051633855
-0.00042867743
-0.00034613737
-0.00026845606
-0.00019537451
-0.00012664613
-6.203979e-05
-1.3411316e-06
5.5646449e-05
0.00010910208
0.00015918854
0.00020605373
0.00024983237
0.00029064788
0.00032861457
0.00036383996
0.00039642727
0.00042647791
0.00045409385
0.00047937987
0.00050244533
0.00052340566
0.00054238327
0.00055950799
0.0005749169
0.00058875373
0.00060116758
0.00061231139
0.00062233989
0.00063140727
0.00063966466
0.0006472575
0.00065432286
0.00066098687
0.00066736241
0.00067354707
0.00067962151
0.00068564843
0.00069167196
0.00069771783
0.00070379399
0.0007098919
0.00071598823
0.00072204755
0.00072802591
0.0007338739
0.00073953635
0.00074495363
0.00075006628
0.00075481814
0.00075915848
0.0007630437
0.00076643834
0.00076931564
0.00077165771
0.00077345516
0.00077470661
0.00077541784
0.00077560096
0.00077527348
0.00077445732
0.00077317798
0.00077146368
0.00076934458
0.00076685208
0.00076401812
0.00076087461
0.00075745279
0.00075378269
0.00074989261
0.00074580859
0.00074155399
0.00073714904
0.00073261063
0.00072795198
0.00072318265
0.00071830849
0.00071333188
0.00070825204
0.00070306547
0.00069776654
0.00069234816
0.00068680247
0.00068112164
0.00067529855
0.00066932753
0.00066320492
0.00065692959
0.00065050333
0.00064393102
0.00063722077
0.00063038382
0.00062343436
0.00061638911
0.00060926696
0.00060208837
0.00059487479
0.00058764804
0.00058042959
0.00057324001
0.00056609828
0.00055902131
0.00055202347
0.00054511623
0.00053830796
0.0005316037
0.00052500518
0.00051851084
0.000512116
0.00050581308
0.00049959194
0.00049344019
0.00048734364
0.00048128673
0.00047525296
0.00046922532
0.00046318674
0.00045712047
0.00045101046
0.00044484167
0.00043860035
0.00043227432
0.00042585312
0.0004193282
0.00041269301
0.00040594311
0.00039907615
0.00039209193
0.00038499233
0.00037778128
0.00037046469
0.00036305038
0.0003555479
0.00034796837
0.00034032427
0.0003326292
0.00032489763
0.00031714463
0.00030938558
0.00030163588
0.00029391068
0.00028622459
0.00027859135
0.00027102364
0.00026353279
0.00025612855
0.00024881895
0.00024161011
0.00023450609
0.00022750889
0.00022061844
0.00021383273
0.00020714782
0.00020055794
0.00019405572
0.00018763231
0.00018127766
0.00017498076
0.00016872993
0.00016251305
0.00015631785
0.00015013218
0.00014394422
0.00013774274
0.0001315173
0.00012525838
0.00011895759
0.00011260772
0.00010620287
9.9738501e-05
9.3211451e-05
8.6619944e-05
7.9963568e-05
7.3243239e-05
6.6461132e-05
5.9620613e-05
5.272614e-05
4.5783173e-05
3.8798018e-05
3.1778007e-05
2.4730038e-05
1.7666416e-05
1.0568e-05
3.6429421e-06
-0.0020771658
-0.0020642285
-0.0020257125
-0.0019614394
-0.0018807435
-0.0017891517
-0.0016886856
-0.0015816754
-0.0014706738
-0.0013576974
-0.0012443105
-0.0011317601
-0.0010210014
-0.00091276483
-0.00080759617
-0.00070591543
-0.00060803143
-0.00051416146
-0.00042445662
-0.00033901433
-0.00025788493
-0.00018107736
-0.00010856457
-4.0288586e-05
2.3834276e-05
8.3908282e-05
0.00014005326
0.00019239988
0.00024108542
0.00028625051
0.00032803677
0.00036658542
0.00040203683
0.00043453084
0.00046420748
0.0004912082
0.00051567707
0.00053776189
0.00055761516
0.00057539448
0.00059126258
0.00060538679
0.00061793797
0.00062908895
0.00063901256
0.00064787932
0.00065585491
0.00066309756
0.00066975539
0.00067596401
0.00068184419
0.00068750008
0.00069301776
0.00069846437
0.0007038878
0.00070931706
0.00071476313
0.00072022053
0.00072566926
0.00073107729
0.00073640287
0.00074159784
0.00074661215
0.00075139382
0.00075588962
0.0007600483
0.0007638237
0.0007671765
0.00077007496
0.00077249538
0.00077442208
0.00077584702
0.00077676913
0.00077719362
0.00077713109
0.00077659676
0.00077560959
0.00077419158
0.00077236709
0.0007701622
0.00076760418
0.00076472095
0.00076154058
0.00075809077