/*--------------------------------*- C++ -*----------------------------------*\
| =========                 |                                                 |
| \\      /  F ield         | OpenFOAM: The Open Source CFD Toolbox           |
|  \\    /   O peration     | Version:  2406                                  |
|   \\  /    A nd           | Website:  www.openfoam.com                      |
|    \\/     M anipulation  |                                                 |
\*---------------------------------------------------------------------------*/
FoamFile
{
    version     2.0;
    format      ascii;
    arch        "LSB;label=32;scalar=64";
    class       volVectorField;
    location    "2000";
    object      U;
}
// * * * * * * * * * * * * * * * * * * * * * * * * * * * * * * * * * * * * * //

dimensions      [0 1 -1 0 0 0 0];

internalField   nonuniform List<vector> 
9800
(
(-0.0005035517 0.00044776531 0)
(-0.0025471689 0.00057830307 0)
(-0.0045622932 0.00050755891 0)
(-0.0060747903 0.00036732211 0)
(-0.0069185281 0.00022105559 0)
(-0.0071607751 8.5858905e-05 0)
(-0.0069175711 -2.5515081e-05 0)
(-0.0063208156 -0.00010758791 0)
(-0.005496806 -0.00016042503 0)
(-0.0045534882 -0.00018797273 0)
(-0.0035750375 -0.0001957931 0)
(-0.0026221777 -0.00018961744 0)
(-0.0017347883 -0.00017462775 0)
(-0.00093585368 -0.00015489068 0)
(-0.00023616651 -0.00013334037 0)
(0.00036215286 -0.00011197406 0)
(0.00086302991 -9.2062335e-05 0)
(0.0012737661 -7.4308974e-05 0)
(0.0016035248 -5.8946803e-05 0)
(0.0018622838 -4.59678e-05 0)
(0.0020600119 -3.5232922e-05 0)
(0.002206209 -2.6531692e-05 0)
(0.0023096415 -1.9622619e-05 0)
(0.0023782057 -1.4260358e-05 0)
(0.0024188701 -1.0206496e-05 0)
(0.0024376648 -7.2363039e-06 0)
(0.0024397059 -5.1442896e-06 0)
(0.0024292527 -3.7483826e-06 0)
(0.0024097928 -2.8898273e-06 0)
(0.002384133 -2.4347312e-06 0)
(0.0023544904 -2.2709123e-06 0)
(0.002322575 -2.3051129e-06 0)
(0.0022896671 -2.4606307e-06 0)
(0.002256687 -2.6754017e-06 0)
(0.0022242601 -2.9002944e-06 0)
(0.0021927747 -3.0976615e-06 0)
(0.0021624354 -3.2400476e-06 0)
(0.0021333101 -3.309071e-06 0)
(0.0021053735 -3.2944059e-06 0)
(0.0020785438 -3.1928727e-06 0)
(0.0020527168 -3.0075586e-06 0)
(0.0020277936 -2.7469863e-06 0)
(0.0020037043 -2.4242464e-06 0)
(0.0019804263 -2.0561216e-06 0)
(0.0019579981 -1.6621477e-06 0)
(0.0019365266 -1.2636303e-06 0)
(0.0019161908 -8.8262211e-07 0)
(0.0018972384 -5.4087395e-07 0)
(0.0018799794 -2.5880308e-07 0)
(0.0018647737 -5.4517658e-08 0)
(0.0018520161 5.7075029e-08 0)
(0.0018421182 6.4980652e-08 0)
(0.0018354885 -3.7361481e-08 0)
(0.0018325123 -2.5177422e-07 0)
(0.0018335317 -5.7480987e-07 0)
(0.0018388264 -9.9827511e-07 0)
(0.0018485983 -1.5102285e-06 0)
(0.0018629607 -2.0953151e-06 0)
(0.0018819295 -2.7351265e-06 0)
(0.0019054186 -3.408939e-06 0)
(0.0019332397 -4.0946758e-06 0)
(0.0019651059 -4.7699856e-06 0)
(0.0020006409 -5.4133443e-06 0)
(0.0020393914 -6.005079e-06 0)
(0.0020808433 -6.5282314e-06 0)
(0.0021244396 -6.9692181e-06 0)
(0.0021695996 -7.3182323e-06 0)
(0.0022157387 -7.5694121e-06 0)
(0.0022622857 -7.720757e-06 0)
(0.0023087001 -7.7738591e-06 0)
(0.0023544855 -7.7334692e-06 0)
(0.0023992006 -7.6069655e-06 0)
(0.002442468 -7.403771e-06 0)
(0.0024839782 -7.1347603e-06 0)
(0.002523493 -6.8117026e-06 0)
(0.0025608441 -6.4467554e-06 0)
(0.0025959317 -6.052032e-06 0)
(0.0026287193 -5.6392475e-06 0)
(0.0026592289 -5.2194359e-06 0)
(0.0026875338 -4.8027413e-06 0)
(0.0027137514 -4.3982597e-06 0)
(0.0027380353 -4.0139308e-06 0)
(0.0027605672 -3.6564607e-06 0)
(0.0027815489 -3.3312694e-06 0)
(0.0028011938 -3.0424586e-06 0)
(0.0028197196 -2.7927911e-06 0)
(0.0028373406 -2.5836889e-06 0)
(0.0028542607 -2.4152482e-06 0)
(0.0028706672 -2.2862754e-06 0)
(0.0028867253 -2.1943564e-06 0)
(0.0029025737 -2.1359499e-06 0)
(0.0029183207 -2.1065302e-06 0)
(0.0029340422 -2.1007476e-06 0)
(0.0029497807 -2.1126464e-06 0)
(0.0029655451 -2.1358793e-06 0)
(0.0029813125 -2.1639753e-06 0)
(0.002997031 -2.1905768e-06 0)
(0.0030126231 -2.2097094e-06 0)
(0.0030279906 -2.2159958e-06 0)
(0.0030430202 -2.2048786e-06 0)
(0.0030575887 -2.172761e-06 0)
(0.0030715696 -2.1171465e-06 0)
(0.0030848388 -2.0366821e-06 0)
(0.0030972804 -1.9311957e-06 0)
(0.0031087913 -1.8016404e-06 0)
(0.0031192863 -1.6500374e-06 0)
(0.0031287012 -1.4793323e-06 0)
(0.0031369954 -1.2932701e-06 0)
(0.0031441534 -1.0961979e-06 0)
(0.0031501858 -8.9289949e-07 0)
(0.0031551285 -6.8838389e-07 0)
(0.0031590412 -4.8770715e-07 0)
(0.0031620059 -2.9577671e-07 0)
(0.0031641236 -1.1718945e-07 0)
(0.0031655109 4.3923553e-08 0)
(0.0031662966 1.8401824e-07 0)
(0.0031666173 3.0024425e-07 0)
(0.0031666133 3.9050321e-07 0)
(0.0031664249 4.5350724e-07 0)
(0.0031661881 4.8876516e-07 0)
(0.0031660308 4.9659611e-07 0)
(0.0031660701 4.7805593e-07 0)
(0.0031664093 4.3490418e-07 0)
(0.0031671355 3.6949205e-07 0)
(0.003168318 2.8468937e-07 0)
(0.0031700074 1.8375307e-07 0)
(0.0031722352 7.023605e-08 0)
(0.0031750133 -5.2148279e-08 0)
(0.0031783351 -1.7961895e-07 0)
(0.0031821764 -3.0844853e-07 0)
(0.003186497 -4.3504717e-07 0)
(0.0031912419 -5.5605165e-07 0)
(0.0031963443 -6.6839522e-07 0)
(0.0032017269 -7.6935779e-07 0)
(0.0032073047 -8.5661475e-07 0)
(0.0032129873 -9.2825662e-07 0)
(0.0032186814 -9.8280359e-07 0)
(0.0032242928 -1.0192157e-06 0)
(0.0032297287 -1.0368698e-06 0)
(0.0032348999 -1.0355723e-06 0)
(0.0032397225 -1.0155056e-06 0)
(0.0032441195 -9.7723821e-07 0)
(0.0032480227 -9.2166184e-07 0)
(0.0032513731 -8.4999424e-07 0)
(0.0032541229 -7.6372225e-07 0)
(0.0032562355 -6.6460144e-07 0)
(0.0032576868 -5.5459699e-07 0)
(0.0032584649 -4.3587502e-07 0)
(0.0032585706 -3.1072915e-07 0)
(0.003258017 -1.8156295e-07 0)
(0.0032568294 -5.08166e-08 0)
(0.0032550444 7.9033487e-08 0)
(0.0032527092 2.0558454e-07 0)
(0.0032498805 3.264779e-07 0)
(0.0032466234 4.3952541e-07 0)
(0.0032430098 5.4266452e-07 0)
(0.0032391174 6.3408411e-07 0)
(0.0032350273 7.1217829e-07 0)
(0.0032308232 7.7565498e-07 0)
(0.0032265891 8.2349713e-07 0)
(0.0032224079 8.550394e-07 0)
(0.0032183597 8.6994041e-07 0)
(0.0032145201 8.6822495e-07 0)
(0.0032109587 8.5025535e-07 0)
(0.0032077379 8.1674704e-07 0)
(0.0032049117 7.6872125e-07 0)
(0.0032025246 7.0750845e-07 0)
(0.0032006111 6.3468035e-07 0)
(0.003199195 5.5204052e-07 0)
(0.0031982895 4.6153741e-07 0)
(0.0031978968 3.6525691e-07 0)
(0.0031980089 2.6530943e-07 0)
(0.0031986077 1.6385376e-07 0)
(0.0031996659 6.2967881e-08 0)
(0.0032011481 -3.5316251e-08 0)
(0.0032030114 -1.2913725e-07 0)
(0.003205207 -2.1676847e-07 0)
(0.0032076814 -2.9671194e-07 0)
(0.0032103775 -3.6766658e-07 0)
(0.003213236 -4.2859331e-07 0)
(0.0032161969 -4.7867947e-07 0)
(0.0032192007 -5.1739055e-07 0)
(0.0032221892 -5.4441287e-07 0)
(0.0032251073 -5.5969833e-07 0)
(0.0032279034 -5.6339745e-07 0)
(0.0032305306 -5.5589225e-07 0)
(0.0032329473 -5.3773217e-07 0)
(0.0032351178 -5.0964964e-07 0)
(0.003237013 -4.7249924e-07 0)
(0.0032386104 -4.2724925e-07 0)
(0.0032398946 -3.7494416e-07 0)
(0.0032408574 -3.1666121e-07 0)
(0.0032414975 -2.5348633e-07 0)
(0.003241821 -1.8641262e-07 0)
(0.0032418405 -1.1609543e-07 0)
(0.003241575 -4.2286923e-08 0)
(0.0032410515 3.6154292e-08 0)
(0.0032402869 1.1903601e-07 0)
(0.0032391414 2.4235938e-07 0)
(0.0032376597 4.9619799e-07 0)
(-0.0010578088 0.0027458462 0)
(-0.0053551584 0.0038777108 0)
(-0.0088799045 0.0032037814 0)
(-0.011101129 0.0020371109 0)
(-0.011960598 0.00087881328 0)
(-0.011712468 -0.00010067468 0)
(-0.010647459 -0.00084436956 0)
(-0.0090424104 -0.0013486064 0)
(-0.0071308007 -0.0016415959 0)
(-0.0050932546 -0.0017651572 0)
(-0.0030612537 -0.0017628546 0)
(-0.0011256463 -0.0016740452 0)
(0.00065552536 -0.0015313124 0)
(0.0022499328 -0.0013599204 0)
(0.0036436227 -0.0011780331 0)
(0.0048351495 -0.0009980493 0)
(0.0058321671 -0.00082802567 0)
(0.0066479263 -0.00067272281 0)
(0.0072989258 -0.00053446126 0)
(0.0078032494 -0.00041394806 0)
(0.0081793626 -0.00031084314 0)
(0.008445304 -0.00022415723 0)
(0.0086181492 -0.00015252329 0)
(0.0087136737 -9.4387053e-05 0)
(0.008746141 -4.81114e-05 0)
(0.0087281862 -1.2055682e-05 0)
(0.0086707823 1.5362344e-05 0)
(0.0085832958 3.5613536e-05 0)
(0.008473609 5.0009857e-05 0)
(0.0083482572 5.9705241e-05 0)
(0.008212568 6.5702116e-05 0)
(0.0080708039 6.8860705e-05 0)
(0.0079263029 6.9909103e-05 0)
(0.0077816127 6.9453496e-05 0)
(0.0076386186 6.7988353e-05 0)
(0.0074986622 6.5906371e-05 0)
(0.0073626517 6.3508034e-05 0)
(0.007231162 6.1010849e-05 0)
(0.0071045265 5.8558242e-05 0)
(0.0069829178 5.6228327e-05 0)
(0.00686642 5.4042625e-05 0)
(0.00675509 5.1974949e-05 0)
(0.0066490085 4.9960513e-05 0)
(0.0065483205 4.790535e-05 0)
(0.0064532639 4.5695954e-05 0)
(0.0063641872 4.3209061e-05 0)
(0.006281555 4.0321265e-05 0)
(0.0062059431 3.691827e-05 0)
(0.0061380228 3.2903321e-05 0)
(0.0060785353 2.8204534e-05 0)
(0.0060282603 2.2780703e-05 0)
(0.0059879773 1.6625222e-05 0)
(0.0059584248 9.7679082e-06 0)
(0.0059402599 2.2744496e-06 0)
(0.0059340163 -5.7545228e-06 0)
(0.0059400745 -1.4186703e-05 0)
(0.0059586266 -2.2865713e-05 0)
(0.0059896538 -3.1619045e-05 0)
(0.0060329157 -4.0263084e-05 0)
(0.0060879455 -4.8610338e-05 0)
(0.0061540541 -5.6477648e-05 0)
(0.0062303452 -6.369449e-05 0)
(0.0063157382 -7.0110721e-05 0)
(0.0064090004 -7.5603071e-05 0)
(0.0065087846 -8.0079977e-05 0)
(0.0066136711 -8.3484473e-05 0)
(0.0067222117 -8.5795059e-05 0)
(0.0068329718 -8.7024678e-05 0)
(0.0069445711 -8.7218009e-05 0)
(0.007055719 -8.6447458e-05 0)
(0.0071652444 -8.4808221e-05 0)
(0.0072721187 -8.2412836e-05 0)
(0.0073754727 -7.9385621e-05 0)
(0.0074746055 -7.5857271e-05 0)
(0.0075689882 -7.1959933e-05 0)
(0.0076582609 -6.7822846e-05 0)
(0.0077422257 -6.3568697e-05 0)
(0.0078208349 -5.9310671e-05 0)
(0.0078941762 -5.5150205e-05 0)
(0.0079624561 -5.1175347e-05 0)
(0.0080259807 -4.7459676e-05 0)
(0.0080851367 -4.4061672e-05 0)
(0.0081403708 -4.1024485e-05 0)
(0.0081921699 -3.8376017e-05 0)
(0.0082410415 -3.612931e-05 0)
(0.0082874951 -3.4283178e-05 0)
(0.0083320246 -3.2823118e-05 0)
(0.0083750921 -3.1722447e-05 0)
(0.0084171138 -3.0943727e-05 0)
(0.0084584481 -3.0440424e-05 0)
(0.008499386 -3.0158819e-05 0)
(0.0085401439 -3.0040125e-05 0)
(0.0085808602 -3.0022758e-05 0)
(0.0086215938 -3.0044704e-05 0)
(0.0086623267 -3.0045877e-05 0)
(0.0087029684 -2.9970397e-05 0)
(0.008743364 -2.9768654e-05 0)
(0.0087833043 -2.9399109e-05 0)
(0.0088225371 -2.8829701e-05 0)
(0.0088607809 -2.8038856e-05 0)
(0.0088977391 -2.7015994e-05 0)
(0.0089331133 -2.5761602e-05 0)
(0.0089666182 -2.4286801e-05 0)
(0.0089979933 -2.2612537e-05 0)
(0.0090270148 -2.076836e-05 0)
(0.009053505 -1.879096e-05 0)
(0.0090773393 -1.6722447e-05 0)
(0.0090984513 -1.4608548e-05 0)
(0.0091168353 -1.2496713e-05 0)
(0.0091325466 -1.0434308e-05 0)
(0.0091456991 -8.4668634e-06 0)
(0.0091564614 -6.6365133e-06 0)
(0.0091650506 -4.9806323e-06 0)
(0.0091717249 -3.5307121e-06 0)
(0.0091767751 -2.3115143e-06 0)
(0.0091805151 -1.3404935e-06 0)
(0.0091832721 -6.2750035e-07 0)
(0.0091853768 -1.7476702e-07 0)
(0.009187154 2.2876968e-08 0)
(0.0091889133 -2.2479949e-08 0)
(0.0091909412 -2.9246157e-07 0)
(0.0091934939 -7.6325834e-07 0)
(0.0091967916 -1.4065389e-06 0)
(0.009201014 -2.1905117e-06 0)
(0.0092062969 -3.0809747e-06 0)
(0.0092127308 -4.0424187e-06 0)
(0.0092203604 -5.0390638e-06 0)
(0.0092291855 -6.0358653e-06 0)
(0.009239163 -6.999406e-06 0)
(0.0092502103 -7.8986956e-06 0)
(0.0092622091 -8.7058389e-06 0)
(0.0092750102 -9.3965558e-06 0)
(0.0092884386 -9.9506006e-06 0)
(0.0093022992 -1.0351991e-05 0)
(0.0093163822 -1.0589176e-05 0)
(0.0093304694 -1.0655017e-05 0)
(0.0093443394 -1.0546719e-05 0)
(0.009357773 -1.026564e-05 0)
(0.0093705587 -9.8170388e-06 0)
(0.0093824969 -9.2097813e-06 0)
(0.0093934044 -8.4559662e-06 0)
(0.009403118 -7.5705713e-06 0)
(0.0094114974 -6.5710168e-06 0)
(0.0094184281 -5.4767767e-06 0)
(0.0094238233 -4.3089328e-06 0)
(0.0094276251 -3.0897723e-06 0)
(0.0094298059 -1.8423414e-06 0)
(0.009430368 -5.9001628e-07 0)
(0.0094293436 6.4402333e-07 0)
(0.0094267941 1.8371833e-06 0)
(0.009422808 2.9679379e-06 0)
(0.0094174995 4.0161919e-06 0)
(0.0094110053 4.9637272e-06 0)
(0.0094034823 5.7944504e-06 0)
(0.0093951039 6.4947896e-06 0)
(0.0093860563 7.0538314e-06 0)
(0.009376535 7.4636266e-06 0)
(0.0093667408 7.7192261e-06 0)
(0.0093568753 7.8188571e-06 0)
(0.0093471375 7.7638617e-06 0)
(0.0093377192 7.5587103e-06 0)
(0.0093288016 7.2108406e-06 0)
(0.0093205517 6.7305071e-06 0)
(0.0093131194 6.1305089e-06 0)
(0.0093066339 5.4258965e-06 0)
(0.0093012025 4.6335811e-06 0)
(0.0092969081 3.7719404e-06 0)
(0.0092938084 2.8603452e-06 0)
(0.0092919351 1.9187244e-06 0)
(0.0092912942 9.6704754e-07 0)
(0.0092918667 2.4888309e-08 0)
(0.0092936093 -8.8905772e-07 0)
(0.0092964568 -1.7572717e-06 0)
(0.0093003239 -2.5638787e-06 0)
(0.0093051075 -3.2948329e-06 0)
(0.0093106901 -3.9382699e-06 0)
(0.0093169424 -4.4845827e-06 0)
(0.0093237266 -4.9266221e-06 0)
(0.0093308997 -5.259665e-06 0)
(0.0093383165 -5.4814729e-06 0)
(0.0093458331 -5.5921583e-06 0)
(0.0093533092 -5.5941394e-06 0)
(0.0093606114 -5.4919071e-06 0)
(0.0093676152 -5.2919071e-06 0)
(0.0093742078 -5.0022455e-06 0)
(0.0093802892 -4.6325291e-06 0)
(0.0093857742 -4.193558e-06 0)
(0.0093905935 -3.6971337e-06 0)
(0.0093946947 -3.1557734e-06 0)
(0.0093980426 -2.5825011e-06 0)
(0.0094006198 -1.9906523e-06 0)
(0.0094024267 -1.3936827e-06 0)
(0.0094034814 -8.050775e-07 0)
(0.0094038196 -2.3810012e-07 0)
(0.0094034942 2.9472996e-07 0)
(0.0094025763 7.8334219e-07 0)
(0.0094011599 1.2248e-06 0)
(0.0093993443 1.6322317e-06 0)
(0.009397044 2.0482304e-06 0)
(0.0093944748 2.4549325e-06 0)
(-0.0013500055 0.0062531469 0)
(-0.0060815724 0.0079035297 0)
(-0.0086349314 0.0057890828 0)
(-0.0093918705 0.0030824479 0)
(-0.0087817081 0.00065781425 0)
(-0.0072333198 -0.0012573059 0)
(-0.005101692 -0.0026174167 0)
(-0.0026747518 -0.0034702447 0)
(-0.00015698654 -0.0039090267 0)
(0.0023147485 -0.0040332507 0)
(0.0046526267 -0.0039330869 0)
(0.0068023414 -0.0036833326 0)
(0.0087330923 -0.0033427767 0)
(0.01043128 -0.0029557097 0)
(0.011894723 -0.0025541049 0)
(0.013129231 -0.0021598178 0)
(0.014146413 -0.0017871663 0)
(0.014961659 -0.001444869 0)
(0.015592664 -0.0011375551 0)
(0.016058339 -0.00086696183 0)
(0.016377985 -0.00063285502 0)
(0.016570662 -0.00043369596 0)
(0.016654713 -0.00026710382 0)
(0.016647414 -0.00013020171 0)
(0.01656467 -1.9811333e-05 0)
(0.016420805 6.7392902e-05 0)
(0.016228491 0.00013468616 0)
(0.015998833 0.00018513141 0)
(0.015741428 0.00022153365 0)
(0.015464432 0.00024641709 0)
(0.015174677 0.00026201924 0)
(0.014877794 0.00027029432 0)
(0.014578345 0.00027292282 0)
(0.014279965 0.00027132513 0)
(0.013985489 0.00026667791 0)
(0.013697087 0.00025993183 0)
(0.013416382 0.00025183009 0)
(0.013144567 0.00024292726 0)
(0.012882511 0.00023360827 0)
(0.012630846 0.00022410754 0)
(0.012390061 0.00021452869 0)
(0.012160566 0.00020486467 0)
(0.011942759 0.00019501882 0)
(0.011737067 0.00018482668 0)
(0.011543987 0.00017407846 0)
(0.011364103 0.00016254172 0)
(0.011198094 0.00014998379 0)
(0.011046723 0.00013619304 0)
(0.010910824 0.00012099831 0)
(0.010791268 0.00010428549 0)
(0.010688922 8.6010417e-05 0)
(0.010604606 6.6207505e-05 0)
(0.010539045 4.4993247e-05 0)
(0.010492818 2.256414e-05 0)
(0.010466312 -8.1033099e-07 0)
(0.010459686 -2.4792711e-05 0)
(0.010472851 -4.8992057e-05 0)
(0.010505422 -7.2983587e-05 0)
(0.01055672 -9.6324925e-05 0)
(0.010625773 -0.00011857263 0)
(0.010711325 -0.00013930109 0)
(0.010811868 -0.0001581215 0)
(0.01092567 -0.00017469917 0)
(0.011050829 -0.00018876777 0)
(0.011185321 -0.0002001396 0)
(0.011327057 -0.00020871131 0)
(0.011473942 -0.00021446483 0)
(0.011623934 -0.00021746405 0)
(0.011775088 -0.00021784759 0)
(0.011925608 -0.00021581869 0)
(0.012073882 -0.00021163298 0)
(0.012218509 -0.00020558525 0)
(0.012358315 -0.00019799592 0)
(0.012492371 -0.0001891981 0)
(0.012619986 -0.00017952566 0)
(0.012740705 -0.00016930278 0)
(0.012854296 -0.00015883523 0)
(0.012960732 -0.00014840324 0)
(0.01306017 -0.00013825613 0)
(0.013152926 -0.00012860842 0)
(0.013239447 -0.00011963725 0)
(0.013320286 -0.00011148109 0)
(0.013396069 -0.00010423923 0)
(0.013467474 -9.7972368e-05 0)
(0.013535197 -9.2703724e-05 0)
(0.01359993 -8.8421019e-05 0)
(0.013662337 -8.5079031e-05 0)
(0.013723029 -8.2602814e-05 0)
(0.013782551 -8.0891572e-05 0)
(0.013841361 -7.9823115e-05 0)
(0.01389982 -7.9258892e-05 0)
(0.013958184 -7.9049452e-05 0)
(0.0140166 -7.9040247e-05 0)
(0.014075107 -7.9077538e-05 0)
(0.014133638 -7.9014251e-05 0)
(0.014192028 -7.8715478e-05 0)
(0.01425003 -7.8063459e-05 0)
(0.014307325 -7.6961754e-05 0)
(0.014363542 -7.5338489e-05 0)
(0.014418276 -7.3148479e-05 0)
(0.014471107 -7.0374206e-05 0)
(0.014521621 -6.7025592e-05 0)
(0.014569428 -6.3138669e-05 0)
(0.01461418 -5.8773196e-05 0)
(0.014655584 -5.4009438e-05 0)
(0.014693414 -4.8944237e-05 0)
(0.014727525 -4.3686625e-05 0)
(0.014757852 -3.8353164e-05 0)
(0.014784417 -3.3063239e-05 0)
(0.014807326 -2.7934483e-05 0)
(0.014826765 -2.3078517e-05 0)
(0.014842993 -1.8597131e-05 0)
(0.014856334 -1.4579036e-05 0)
(0.014867165 -1.1097256e-05 0)
(0.0148759 -8.2072233e-06 0)
(0.014882984 -5.9455795e-06 0)
(0.014888872 -4.3297049e-06 0)
(0.014894016 -3.3579028e-06 0)
(0.014898858 -3.0102461e-06 0)
(0.014903809 -3.2499396e-06 0)
(0.014909246 -4.025193e-06 0)
(0.014915497 -5.2714252e-06 0)
(0.014922838 -6.913779e-06 0)
(0.014931484 -8.8697725e-06 0)
(0.014941589 -1.1052055e-05 0)
(0.014953241 -1.3371107e-05 0)
(0.014966468 -1.5737861e-05 0)
(0.014981233 -1.806611e-05 0)
(0.014997443 -2.0274691e-05 0)
(0.015014953 -2.2289354e-05 0)
(0.015033571 -2.4044317e-05 0)
(0.015053066 -2.5483462e-05 0)
(0.015073178 -2.6561199e-05 0)
(0.01509362 -2.7242981e-05 0)
(0.015114092 -2.7505518e-05 0)
(0.015134287 -2.733668e-05 0)
(0.015153899 -2.6735183e-05 0)
(0.01517263 -2.5710011e-05 0)
(0.015190195 -2.4279732e-05 0)
(0.015206334 -2.2471609e-05 0)
(0.015220811 -2.0320676e-05 0)
(0.015233422 -1.7868677e-05 0)
(0.015244 -1.5163014e-05 0)
(0.015252415 -1.2255616e-05 0)
(0.015258578 -9.2018472e-06 0)
(0.015262442 -6.0593723e-06 0)
(0.015264003 -2.8870709e-06 0)
(0.0152633 2.5616761e-07 0)
(0.015260413 3.3125727e-06 0)
(0.015255461 6.2266962e-06 0)
(0.015248601 8.9464866e-06 0)
(0.015240022 1.1424319e-05 0)
(0.015229942 1.3617829e-05 0)
(0.015218606 1.5490744e-05 0)
(0.015206276 1.7013484e-05 0)
(0.015193227 1.8163739e-05 0)
(0.015179746 1.8926805e-05 0)
(0.01516612 1.9295863e-05 0)
(0.015152633 1.9272025e-05 0)
(0.01513956 1.8864282e-05 0)
(0.015127163 1.8089227e-05 0)
(0.015115684 1.6970665e-05 0)
(0.015105341 1.5539018e-05 0)
(0.015096324 1.3830614e-05 0)
(0.015088791 1.1886792e-05 0)
(0.015082867 9.7529255e-06 0)
(0.01507864 7.4773014e-06 0)
(0.015076164 5.1099885e-06 0)
(0.015075451 2.7016314e-06 0)
(0.015076482 3.0225989e-07 0)
(0.0150792 -2.0398681e-06 0)
(0.015083517 -4.2792332e-06 0)
(0.015089315 -6.3740778e-06 0)
(0.015096451 -8.2871654e-06 0)
(0.015104758 -9.9864898e-06 0)
(0.015114054 -1.1445751e-05 0)
(0.015124142 -1.2644737e-05 0)
(0.015134817 -1.3569484e-05 0)
(0.015145872 -1.4212326e-05 0)
(0.015157098 -1.4571757e-05 0)
(0.015168292 -1.4652212e-05 0)
(0.01517926 -1.4463673e-05 0)
(0.015189823 -1.402124e-05 0)
(0.015199813 -1.3344563e-05 0)
(0.015209085 -1.2457283e-05 0)
(0.015217513 -1.1386388e-05 0)
(0.015224995 -1.0161604e-05 0)
(0.015231451 -8.8147411e-06 0)
(0.015236828 -7.3791005e-06 0)
(0.015241099 -5.8889103e-06 0)
(0.01524426 -4.378845e-06 0)
(0.015246336 -2.883672e-06 0)
(0.015247374 -1.4380071e-06 0)
(0.015247448 -7.6159921e-08 0)
(0.015246654 1.1682545e-06 0)
(0.015245115 2.2637248e-06 0)
(0.015242987 3.1846183e-06 0)
(0.01524045 3.9178794e-06 0)
(0.015237486 4.4829041e-06 0)
(0.015234446 4.8447843e-06 0)
(-0.0014697697 0.010476884 0)
(-0.0043257972 0.01078549 0)
(-0.0031279004 0.0062570742 0)
(-0.00038747621 0.0020783489 0)
(0.0027666496 -0.0012394777 0)
(0.0059943458 -0.0036704003 0)
(0.0090874502 -0.0052415252 0)
(0.011932405 -0.006102335 0)
(0.014488249 -0.0064299323 0)
(0.01675323 -0.0063756289 0)
(0.018738688 -0.0060604858 0)
(0.020459278 -0.0055789251 0)
(0.021930619 -0.0050019278 0)
(0.023168453 -0.0043814966 0)
(0.02418812 -0.0037547535 0)
(0.02500477 -0.0031472584 0)
(0.025633728 -0.0025758798 0)
(0.026090571 -0.002051018 0)
(0.026391096 -0.0015783208 0)
(0.026551207 -0.0011599842 0)
(0.026586778 -0.00079578994 0)
(0.026513442 -0.00048383896 0)
(0.026346354 -0.00022104993 0)
(0.026100008 -3.5147334e-06 0)
(0.025787641 0.00017329291 0)
(0.025421448 0.00031407573 0)
(0.025012579 0.00042345824 0)
(0.024571061 0.00050586481 0)
(0.024105774 0.00056543289 0)
(0.023624469 0.00060595697 0)
(0.023133819 0.00063085606 0)
(0.022639497 0.00064315943 0)
(0.022146261 0.00064550628 0)
(0.021658051 0.00064015541 0)
(0.021178095 0.00062900196 0)
(0.02070901 0.00061359877 0)
(0.020252895 0.00059518064 0)
(0.019811431 0.0005746905 0)
(0.019385967 0.00055280675 0)
(0.018977598 0.00052997181 0)
(0.018587239 0.0005064218 0)
(0.018215687 0.00048221779 0)
(0.017863674 0.00045727858 0)
(0.017531912 0.00043141516 0)
(0.01722112 0.00040436642 0)
(0.016932044 0.00037583549 0)
(0.016665462 0.00034552556 0)
(0.016422177 0.00031317409 0)
(0.016202997 0.00027858378 0)
(0.016008707 0.00024164891 0)
(0.01584003 0.00020237566 0)
(0.015697585 0.00016089521 0)
(0.015581839 0.00011746867 0)
(0.015493062 7.2483065e-05 0)
(0.015431286 2.6437086e-05 0)
(0.015396263 -2.0075172e-05 0)
(0.015387469 -6.6373731e-05 0)
(0.015404055 -0.00011172765 0)
(0.015444844 -0.00015538788 0)
(0.015508339 -0.00019661569 0)
(0.015592751 -0.00023471302 0)
(0.015696024 -0.00026905322 0)
(0.015815889 -0.00029910869 0)
(0.01594991 -0.00032447319 0)
(0.016095553 -0.00034487738 0)
(0.016250244 -0.00036019661 0)
(0.016411437 -0.000370451 0)
(0.016576673 -0.00037579834 0)
(0.01674364 -0.00037652081 0)
(0.016910218 -0.00037300696 0)
(0.017074516 -0.00036573047 0)
(0.017234905 -0.00035522732 0)
(0.017390032 -0.00034207273 0)
(0.01753883 -0.00032685913 0)
(0.017680516 -0.00031017596 0)
(0.017814582 -0.0002925921 0)
(0.017940779 -0.00027464107 0)
(0.018059094 -0.00025680913 0)
(0.018169722 -0.00023952631 0)
(0.018273042 -0.00022315991 0)
(0.018369578 -0.00020801043 0)
(0.018459972 -0.00019430947 0)
(0.018544948 -0.00018221935 0)
(0.01862528 -0.00017183428 0)
(0.018701762 -0.00016318284 0)
(0.018775176 -0.00015623172 0)
(0.018846269 -0.0001508906 0)
(0.018915722 -0.00014701823 0)
(0.018984135 -0.00014442952 0)
(0.019052006 -0.00014290368 0)
(0.019119719 -0.00014219329 0)
(0.019187539 -0.00014203406 0)
(0.019255598 -0.00014215506 0)
(0.01932391 -0.00014228907 0)
(0.019392363 -0.0001421827 0)
(0.019460741 -0.0001416059 0)
(0.019528728 -0.00014036031 0)
(0.019595933 -0.00013828635 0)
(0.019661909 -0.00013526845 0)
(0.019726172 -0.00013123839 0)
(0.019788225 -0.0001261766 0)
(0.019847585 -0.0001201114 0)
(0.019903799 -0.00011311623 0)
(0.019956466 -0.00010530517 0)
(0.020005255 -9.6826981e-05 0)
(0.020049916 -8.7857976e-05 0)
(0.020090295 -7.8594133e-05 0)
(0.020126333 -6.9242789e-05 0)
(0.020158073 -6.0014333e-05 0)
(0.020185659 -5.1114158e-05 0)
(0.020209323 -4.2735261e-05 0)
(0.020229387 -3.5051657e-05 0)
(0.02024624 -2.8212871e-05 0)
(0.020260334 -2.2339585e-05 0)
(0.020272159 -1.7520579e-05 0)
(0.020282236 -1.3810934e-05 0)
(0.020291094 -1.1231534e-05 0)
(0.020299256 -9.7697428e-06 0)
(0.020307223 -9.3812132e-06 0)
(0.020315458 -9.9926084e-06 0)
(0.02032438 -1.1505169e-05 0)
(0.020334346 -1.3798826e-05 0)
(0.020345647 -1.6736812e-05 0)
(0.020358504 -2.0170446e-05 0)
(0.020373061 -2.3944052e-05 0)
(0.020389387 -2.7899722e-05 0)
(0.020407476 -3.1881886e-05 0)
(0.020427253 -3.5741459e-05 0)
(0.020448575 -3.9339559e-05 0)
(0.020471242 -4.2550634e-05 0)
(0.020495002 -4.5265018e-05 0)
(0.020519563 -4.7390853e-05 0)
(0.0205446 -4.8855405e-05 0)
(0.020569763 -4.9605786e-05 0)
(0.020594692 -4.9609136e-05 0)
(0.020619023 -4.8852295e-05 0)
(0.020642398 -4.7341071e-05 0)
(0.020664472 -4.509911e-05 0)
(0.020684924 -4.2166538e-05 0)
(0.020703463 -3.8598305e-05 0)
(0.020719831 -3.4462439e-05 0)
(0.020733813 -2.9838101e-05 0)
(0.020745238 -2.4813641e-05 0)
(0.020753981 -1.9484541e-05 0)
(0.02075997 -1.3951418e-05 0)
(0.020763183 -8.3179802e-06 0)
(0.020763648 -2.6890738e-06 0)
(0.020761444 2.8313561e-06 0)
(0.020756701 8.1423156e-06 0)
(0.020749591 1.3148049e-05 0)
(0.020740331 1.7759846e-05 0)
(0.020729173 2.1897767e-05 0)
(0.020716403 2.5492061e-05 0)
(0.020702329 2.8484508e-05 0)
(0.020687283 3.0829386e-05 0)
(0.020671607 3.249434e-05 0)
(0.020655649 3.3460839e-05 0)
(0.020639755 3.3724506e-05 0)
(0.020624264 3.329503e-05 0)
(0.020609499 3.2195901e-05 0)
(0.020595764 3.0463758e-05 0)
(0.020583334 2.8147532e-05 0)
(0.020572451 2.5307247e-05 0)
(0.020563323 2.2012622e-05 0)
(0.020556115 1.8341391e-05 0)
(0.020550953 1.4377472e-05 0)
(0.020547914 1.0208939e-05 0)
(0.020547033 5.9259631e-06 0)
(0.020548299 1.6186523e-06 0)
(0.020551659 -2.6249832e-06 0)
(0.020557018 -6.7209666e-06 0)
(0.020564244 -1.0591195e-05 0)
(0.020573172 -1.4165065e-05 0)
(0.020583607 -1.7380726e-05 0)
(0.020595332 -2.0186203e-05 0)
(0.02060811 -2.2540115e-05 0)
(0.020621694 -2.4412221e-05 0)
(0.020635829 -2.5783563e-05 0)
(0.020650257 -2.6646442e-05 0)
(0.020664727 -2.700404e-05 0)
(0.020678997 -2.686992e-05 0)
(0.020692838 -2.6267234e-05 0)
(0.02070604 -2.5227871e-05 0)
(0.020718414 -2.3791387e-05 0)
(0.020729798 -2.2003952e-05 0)
(0.020740054 -1.9917158e-05 0)
(0.020749078 -1.7586909e-05 0)
(0.020756791 -1.5072247e-05 0)
(0.020763149 -1.2434293e-05 0)
(0.02076814 -9.73525e-06 0)
(0.02077178 -7.0375668e-06 0)
(0.020774118 -4.4033114e-06 0)
(0.020775231 -1.8937625e-06 0)
(0.020775227 4.3067962e-07 0)
(0.020774238 2.5105551e-06 0)
(0.020772426 4.2879678e-06 0)
(0.020769985 5.7087649e-06 0)
(0.020767147 6.7247386e-06 0)
(0.020763917 7.3172338e-06 0)
(0.020760727 7.4514445e-06 0)
(-9.686664e-05 0.012231106 0)
(0.0032872367 0.0088610129 0)
(0.011140091 0.002195605 0)
(0.018434382 -0.0023387156 0)
(0.023939725 -0.0053362609 0)
(0.028050293 -0.0072493926 0)
(0.031161145 -0.0082780151 0)
(0.033506669 -0.0086412787 0)
(0.035276118 -0.0085412109 0)
(0.036619125 -0.0081275391 0)
(0.037638461 -0.0075090544 0)
(0.038402065 -0.006767265 0)
(0.038956037 -0.0059629493 0)
(0.039332427 -0.0051406324 0)
(0.039554123 -0.0043323152 0)
(0.039638376 -0.0035603564 0)
(0.039599182 -0.0028397148 0)
(0.039448714 -0.0021796923 0)
(0.039198184 -0.0015853388 0)
(0.0388583 -0.0010584945 0)
(0.038439596 -0.00059871352 0)
(0.037952362 -0.00020377235 0)
(0.037406603 0.00013003149 0)
(0.036811163 0.00040742888 0)
(0.036174805 0.00063363173 0)
(0.035505855 0.00081404017 0)
(0.034812069 0.00095406477 0)
(0.03410059 0.0010589763 0)
(0.033377911 0.001133783 0)
(0.03264986 0.0011831427 0)
(0.031921616 0.0012113041 0)
(0.031197735 0.0012220739 0)
(0.030482202 0.0012188035 0)
(0.029778471 0.0012043908 0)
(0.029089529 0.0011812933 0)
(0.028417948 0.0011515492 0)
(0.027765941 0.0011168035 0)
(0.027135415 0.0010783376 0)
(0.026528019 0.0010371015 0)
(0.025945193 0.00099374768 0)
(0.025388204 0.00094866739 0)
(0.024858189 0.00090202899 0)
(0.02435618 0.00085381909 0)
(0.023883134 0.0008038862 0)
(0.023439946 0.00075198643 0)
(0.023027462 0.00069783064 0)
(0.02264648 0.00064113116 0)
(0.022297739 0.00058164673 0)
(0.021981904 0.00051922321 0)
(0.021699542 0.0004538283 0)
(0.021451092 0.00038557801 0)
(0.021236826 0.00031475353 0)
(0.021056816 0.00024180707 0)
(0.020910897 0.00016735583 0)
(0.020798635 9.2162556e-05 0)
(0.020719293 1.7103712e-05 0)
(0.020671834 -5.684386e-05 0)
(0.020654921 -0.00012862832 0)
(0.020666879 -0.00019718519 0)
(0.020705722 -0.00026148008 0)
(0.020769183 -0.00032054893 0)
(0.020854754 -0.00037354008 0)
(0.020959732 -0.00041975184 0)
(0.021081283 -0.00045866224 0)
(0.0212165 -0.00048994898 0)
(0.021362476 -0.00051349858 0)
(0.021516366 -0.00052940455 0)
(0.021675448 -0.00053795566 0)
(0.021837182 -0.0005396156 0)
(0.021999254 -0.00053499622 0)
(0.022159613 -0.00052482644 0)
(0.0223165 -0.00050991916 0)
(0.022468458 -0.00049113803 0)
(0.022614343 -0.00046936584 0)
(0.022753316 -0.00044547577 0)
(0.022884831 -0.00042030634 0)
(0.023008617 -0.00039464042 0)
(0.023124653 -0.0003691885 0)
(0.023233137 -0.00034457604 0)
(0.023334456 -0.00032133455 0)
(0.023429151 -0.00029989602 0)
(0.023517882 -0.00028059026 0)
(0.023601394 -0.00026364481 0)
(0.023680483 -0.00024918702 0)
(0.023755963 -0.00023724804 0)
(0.023828633 -0.00022776871 0)
(0.023899255 -0.00022060709 0)
(0.023968522 -0.00021554758 0)
(0.024037039 -0.00021231172 0)
(0.024105306 -0.00021057027 0)
(0.024173706 -0.0002099567 0)
(0.02424249 -0.00021008161 0)
(0.024311781 -0.0002105477 0)
(0.024381569 -0.00021096498 0)
(0.024451722 -0.00021096548 0)
(0.024521991 -0.00021021701 0)
(0.024592031 -0.00020843533 0)
(0.024661415 -0.00020539418 0)
(0.024729659 -0.00020093278 0)
(0.024796243 -0.00019496047 0)
(0.024860635 -0.00018745833 0)
(0.024922317 -0.00017847775 0)
(0.024980806 -0.0001681361 0)
(0.025035676 -0.00015660993 0)
(0.025086579 -0.00014412586 0)
(0.025133252 -0.00013094993 0)
(0.025175536 -0.00011737573 0)
(0.025213377 -0.00010371205 0)
(0.025246827 -9.0270467e-05 0)
(0.025276048 -7.7353444e-05 0)
(0.025301299 -6.5243348e-05 0)
(0.025322929 -5.419281e-05 0)
(0.025341361 -4.4416674e-05 0)
(0.025357081 -3.6085766e-05 0)
(0.025370619 -2.9322572e-05 0)
(0.025382527 -2.4198905e-05 0)
(0.025393368 -2.0735454e-05 0)
(0.025403691 -1.8903187e-05 0)
(0.025414019 -1.8626349e-05 0)
(0.025424831 -1.9786908e-05 0)
(0.02543655 -2.223011e-05 0)
(0.025449533 -2.5770931e-05 0)
(0.025464063 -3.0201075e-05 0)
(0.025480342 -3.5296311e-05 0)
(0.025498488 -4.0823804e-05 0)
(0.02551854 -4.6549271e-05 0)
(0.025540453 -5.2243679e-05 0)
(0.02556411 -5.7689354e-05 0)
(0.025589322 -6.2685309e-05 0)
(0.025615842 -6.7051732e-05 0)
(0.025643369 -7.0633544e-05 0)
(0.025671562 -7.330303e-05 0)
(0.025700049 -7.4961543e-05 0)
(0.025728439 -7.5540347e-05 0)
(0.02575633 -7.5000639e-05 0)
(0.025783324 -7.3332869e-05 0)
(0.025809032 -7.0555422e-05 0)
(0.025833087 -6.6712825e-05 0)
(0.025855149 -6.1873504e-05 0)
(0.025874917 -5.6127271e-05 0)
(0.02589213 -4.9582536e-05 0)