/*--------------------------------*- C++ -*----------------------------------*\
| =========                 |                                                 |
| \\      /  F ield         | OpenFOAM: The Open Source CFD Toolbox           |
|  \\    /   O peration     | Version:  2406                                  |
|   \\  /    A nd           | Website:  www.openfoam.com                      |
|    \\/     M anipulation  |                                                 |
\*---------------------------------------------------------------------------*/
FoamFile
{
    version     2.0;
    format      ascii;
    arch        "LSB;label=32;scalar=64";
    class       volScalarField;
    location    "1119";
    object      T;
}
// * * * * * * * * * * * * * * * * * * * * * * * * * * * * * * * * * * * * * //

dimensions      [0 0 0 0 0 0 0];

internalField   nonuniform List<scalar> 
7200
(
1
1
1
1
1
1
1
1
1
1
1
1
1
1
1
0.99999999
0.99999999
0.99999999
0.99999999
0.99999999
0.99999999
0.99999999
0.99999999
0.99999999
0.99999999
0.99999999
0.99999999
0.99999999
0.99999999
0.99999999
0.99999999
0.99999999
0.99999999
0.99999999
0.99999999
0.99999999
0.99999999
0.99999999
0.99999999
0.99999999
0.99999999
0.99999999
0.99999999
0.99999999
0.99999999
0.99999999
0.99999999
0.99999999
0.99999999
0.99999999
0.99999999
0.99999999
0.99999999
0.99999999
0.99999999
0.99999999
0.99999999
0.99999999
0.99999999
0.99999999
0.99999999
0.99999999
0.99999999
0.99999999
0.99999999
0.99999999
0.99999999
0.99999999
0.99999999
0.99999999
0.99999999
0.99999999
0.99999999
0.99999999
0.99999999
0.99999999
0.99999999
0.99999999
0.99999999
0.99999999
0.99999999
0.99999999
0.99999999
0.99999999
0.99999999
0.99999999
0.99999999
0.99999999
0.99999999
0.99999999
0.99999999
0.99999999
0.99999999
0.99999999
0.99999999
0.99999999
0.99999999
0.99999999
0.99999999
0.99999999
0.99999999
0.99999999
0.99999999
0.99999999
0.99999999
0.99999999
0.99999999
0.99999999
0.99999999
0.99999999
0.99999999
0.99999999
0.99999999
0.99999999
0.99999999
0.99999999
0.99999999
0.99999999
0.99999999
0.99999999
0.99999999
0.99999999
0.99999999
0.99999999
0.99999999
0.99999999
0.99999999
0.99999999
0.99999999
0.99999999
0.99999999
0.99999999
0.99999999
0.99999999
0.99999999
0.99999999
0.99999999
0.99999999
0.99999999
0.99999999
0.99999999
0.99999999
0.99999999
0.99999999
0.99999999
0.99999999
0.99999999
0.99999999
0.99999999
0.99999999
0.99999999
0.99999999
0.99999999
0.99999999
0.99999999
0.99999999
0.99999999
0.99999999
0.99999999
0.99999999
0.99999999
0.99999999
0.99999999
0.99999999
0.99999999
0.99999999
0.99999999
0.99999999
0.99999999
0.99999999
0.99999999
0.99999999
0.99999999
0.99999999
0.99999999
0.99999999
0.99999999
0.99999999
0.99999999
0.99999999
0.99999999
0.99999999
0.99999999
0.99999999
0.99999999
0.99999999
0.99999999
0.99999999
0.99999999
0.99999999
0.99999999
0.99999999
0.99999999
0.99999999
0.99999999
0.99999999
0.99999999
0.99999999
0.99999999
0.99999999
1
1
1
1
1
1
1
1
1
1
1
1
1
1
1
1
1
1
1
1
1
1
1
1
1
1
1
1
1
1
1
1
1
1
1
1
1
1
1
1
1
1
1
1
1
1
1
1
1
1
1
1
1
1
1
1
1
1
1
1
1
1
1
1
1
1
1
1
1
1
1
1
1
1
1
1
1
1
1
1
1
1
1
1
1
1
1
1
1
1
1
1
1
1
1
1
1
1
1
1
1
1
1
1
1
1
1
1
1
1
1
1
1
1
1
1
1
1
1
1
1
1
1
1
1
1
1
1
1
1
1
1
1
1
1
1
1
1
1
1
1
1
1
1
1
1
1
1
1
1
1
1
1
1
1
1
1
1
1
1
1
1
1
1
1
1
1
1
1
1
1
1
1
1
1
1
1
1
1
1
1
1
1
1
1
1
1
1
1
1
1
1
1
1
1
1
1
1
1
1
1
1
1
1
1
1
1
1
1
1
1
1
1
1
1
1
1
1
1
1
1
1
1
1
1
1
1
1
1
1
1
1
1
1
1
1
1
1
1
1
1
1
1
1
1
1
1
1
1
1
1
1
1
1
1
1
1
1
1
1
1
1
1
1
1
1
1
1
1
1
1
1
1
1
1
1
1
1
1
1
1
1
1
1
1
1
1
1
1
1
1
1
1
1
1
1
1
1
1
1
1
1
1
1
1
1
1
1
1
1
1
1
1
1
1
1
1
1
1
1
1
1
1
1
1
1
1
1
1
1
1
1
1
1
1
1
1
1
1
1
1
1
1
1
1
1
1
1
1
1
1
1
1
1
1
1
1
1
1
1
1
1
1
1
1
1
1
1
1
1
1
1
1
1
1
1
1
1
1
1
1
1
1
1
1
1
1
1
1
1
1
1
1
1
1
1
1
1
1
1
1
1
1
1
1
1
1
1
1
1
1
1
1
1
1
1
1
1
1
1
1
1
1
1
1
1
1
1
1
1
1
1
1
1
1
1
1
1
1
1
1
1
1
1
1
1
1
1
1
1
1
1
1
1
1
1
1
1
1
1
1
1
1
1
1
1
1
1
1
1
1
1
1
1
1
1
1
1
1
1
1
1
1
1
1
1
1
1
1
1
1
1
1
1
1
1
1
1
1
1
1
1
1
1
1
1
1
1
1
1
1
1
1
1
1
1
1
1
1
1
1
1
1
1
1
1
1
1
1
1
1
1
1
1
1
1
1
1
1
1
1
1
1
1
1
1
1
1
1
1
1
1
1
1
1
1
1
1
1
1
1
1
1
1
1
1
1
1
1
1
1
1
1
1
1
1
1
1
1
1
1
1
1
1
1
1
1
1
1
1
1
1
1
1
1
1
1
1
1
1
1
1
1
1
1
1
1
1
1
1
1
1
1
1
1
1
1
1
1
1
1
1
1
1
1
1
1
1
1
1
1
1
1
1
1
1
1
1
1
1
1
1
1
1
1
1
1
1
1
1
1
1
1
1
1
1
1
1
1
1
1
1
1
1
1
1
1
1
1
1
1
1
1
1
1
1
1
1
1
1
1
1
1
1
1
1
1
1
1
1
1
1
1
1
1
1
1
1
1
1
1
1
1
1
1
1
1
1
1
1
1
1
1
1
1
1
1
1
1
1
1
1
1
1
1
1
1
1
1
1
1
1
1
1
1
1
1
1
1
1
1
1
1
1
1
1
1
1
1
1
1
1
1
1
1
1
1
1
1
1
1
1
1
1
1
1
1
1
1
1
1
1
1
1
1
1
1
1
1
1
1
1
1
1
1
1
1
1
1
1
1
1
1
1
1
1
1
1
1
1
1
1
1
1
1
1
1
1
1
1
1
1
1
1
1
1
1
1
1
1
1
1
1
1
1
1
1
1
1
1
1
1
1
1
1
1
1
1
1
1
1
1
1
1
1
1
1
1
1
1
1
1
1
1
1
1
1
1
1
1
1
1
1
1
1
1
1
1
1
1
1
1
1
1
1
1
1
1
1
1
1
1
1
1
1
1
1
1
1
1
1
1
1
1
1
1
1
1
1
1
1
1
1
1
1
1
1
1
1
1
1
1
1
1
1
1
1
1
1
1
1
1
1
1
1
1
1
1
1
1
1
1
1
1
1
1
1
1
1
1
1
1
1
1
1
1
1
1
1
1
1
1
1
1
1
1
1
1
1
1
1
1
1
1
1
1
1
1
1
1
1
1
1
1
1
1
1
1
1
1
1
1
1
1
1
1
1
1
1
1
1
1
1
1
1
1
1
1
1
1
1
1
1
1
1
1
1
1
1
1
1
1
1
1
1
1
1
1
1
1
1
1
1
1
1
1
1
1
1
1
1
1
1
1
1
1
1
1
1
1
1
1
1
1
1
1
1
1
1
1
1
1
1
1
1
1
1
1
1
1
1
1
1
1
1
1
1
1
1
1
1
1
1
1
1
1
1
1
1
1
1
1
1
1
1
1
1
1
1
1
1
1
1
1
1
1
1
1
1
1
1
1
1
1
1
1
1
1
1
1
1
1
1
1
1
1
1
1
1
1
1
1
1
1
1
1
1
1
1
1
1
1
1
1
1
1
1
1
1
1
1
1
1
1
1
1
1
1
1
1
1
1
1
1
1
1
1
1
1
1
1
1
1
1
1
1
1
1
1
1
1
1
1
1
1
1
1
1
1
1
1
1
1
1
1
1
1
1
1
1
1
1
1
1
1
1
1
1
1
1
1
1
1
1
1
1
1
1
1
1
1
1
1
1
1
1
1
1
1
1
1
1
1
1
1
1
1
1
1
1
1
1
1
1
1
1
1
1
1
1
1
1
1
1
1
1
1
1
1
1
1
1
1
1
1
1
1
1
1
1
1
1
1
1
1
1
1
1
1
1
1
1
1
1
1
1
1
1
1
1
1
1
1
1
1
1
1
1
1
1
1
1
1
1
1
1
1
1
1
1
1
1
1
1
1
1
1
1
1
1
1
1
1
1
1
1
1
1
1
1
1
1
1
1
1
1
1
1
1
1
1
1
1
1
1
1
1
1
1
1
1
1
1
1
1
1
1
1
1
1
1
1
1
1
1
1
1
1
1
1
1
1
1
1
1
1
1
1
1
1
1
1
1
1
1
1
1
1
1
1
1
1
1
1
1
1
1
1
1
1
1
1
1
1
1
1
1
1
1
1
1
1
1
1
1
1
1
1
1
1
1
1
1
1
1
1
1
1
1
1
1
1
1
1
1
1
1
1
1
1
1
1
1
1
1
1
1
1
1
1
1
1
1
1
1
1
1
1
1
1
1
1
1
1
1
1
1
1
1
1
1
1
1
1
1
1
1
1
1
1
1
1
1
1
1
1
1
1
1
1
1
1
1
1
1
1
1
1
1
1
1
1
1
1
1
1
1
1
1
1
1
1
1
1
1
1
1
1
1
1
1
1
1
1
1
1
1
1
1
1
1
1
1
1
1
1
1
1
1
1
1
1
1
1
1
1
1
1
1
1
1
1
1
1
1
1
1
1
1
1
1
1
1
1
1
1
1
1
1
1
1
1
1
1
1
1
1
1
1
1
1
1
1
1
1
1
1
1
1
1
1
1
1
1
1
1
1
1
1
1
1
1
1
1
1
1
1
1
1
1
1
1
1
1
1
1
1
1
1
1
1
1
1
1
1
1
1
1
1
1
1
1
1
1
1
1
1
1
1
1
1
1
1
1
1
1
1
1
1
1
1
1
1
1
1
1
1
1
1
1
1
1
1
1
1
1
1
1
1
1
1
1
1
1
1
1
1
1
1
1
1
1
1
1
1
1
1
1
1
1
1
1
1
1
1
1
1
1
1
1
1
1
1
1
1
1
1
1
1
1
1
1
1
1
1
1
1
1
1
1
1
1
1
1
1
1
1
1
1
1
1
1
1
1
1
1
1
1
1
1
1
1
1
1
1
1
1
1
1
1
1
1
1
1
1
1
1
1
1
1
1
1
1
1
1
1
1
1
1
1
1
1
1
1
1
1
1
1
1
1
1
1
1
1
1
1
1
1
1
1
1
1
1
1
1
1
1
1
1
1
1
1
1
1
1
1
1
1
1
1
1
1
1
1
1
1
1
1
1
1
1
1
1
1
1
1
1
1
1
1
1
1
1
1
1
1
1
1
1
1
1
1
1
1
1
1
1
1
1
1
1
1
1
1
1
1
1
1
1
1
1
1
1
1
1
1
1
1
1
1
1
1
1
1
1
1
1
1
1
1
1
1
1
1
1
1
1
1
1
1
1
1
1
1
1
1
1
1
1
1
1
1
1
1
1
1
1
1
1
1
1
1
1
1
1
1
1
1
1
1
1
1
1
1
1
1
1
1
1
1
1
1
1
1
1
1
1
1
1
1
1
1
1
1
1
1
1
1
1
1
1
1
1
1
1
1
1
1
1
1
1
1
1
1
1
1
1
1
1
1
1
1
1
1
1
1
1
1
1
1
1
1
1
1
1
1
1
1
1
1
1
1
1
1
1
1
1
1
1
1
1
1
1
1
1
1
1
1
1
1
1
1
1
1
1
1
1
1
1
1
1
1
1
1
1
1
1
1
1
1
1
1
1
1
1
1
1
1
1
1
1
1
1
1
1
1
1
1
1
1
1
1
1
1
1
1
1
1
1
1
1
1
1
1
1
1
1
1
1
1
1
1
1
1
1
1
1
1
1
1
1
1
1
1
1
1
1
1
1
1
1
1
1
1
1
1
1
1
1
1
1
1
1
1
1
1
1
1
1
1
1
1
1
1
1
1
1
1
1
1
1
1
1
1
1
1
1
1
1
1
1
1
1
1
1
1
1
1
1
1
1
1
1
1
1
1
1
1
1
1
1
1
1
1
1
1
1
1
1
1
1
1
1
1
1
1
1
1
1
1
1
1
1
1
1
1
1
1
1
1
1
1
1
1
1
1
1
1
1
1
1
1
1
1
1
1
1
1
1
1
1
1
1
1
1
1
1
1
1
1
1
1
1
1
1
1
1
1
1
1
1
1
1
1
1
1
1
1
1
1
1
1
1
1
1
1
1
1
1
1
1
1
1
1
1
1
1
1
1
1
1
1
1
1
1
1
1
1
1
1
1
1
1
1
1
1
1
1
1
1
1
1
1
1
1
1
1
1
1
1
1
1
1
1
1
1
1
1
1
1
1
1
1
1
1
1
1
1
1
1
1
1
1
1
1
1
1
1
1
1
1
1
1
1
1
1
1
1
1
1
1
1
1
1
1
1
1
1
1
1
1
1
1
1
1
1
1
1
1
1
1
1
1
1
1
1
1
1
1
1
1
1
1
1
1
1
1
1
1
1
1
1
1
1
1
1
1
1
1
1
1
1
1
1
1
1
1
1
1
1
1
1
1
1
1
1
1
1
1
1
1
1
1
1
1
1
1
1
1
1
1
1
1
1
1
1
1
1
1
1
1
1
1
1
1
1
1
1
1
1
1
1
1
1
1
1
1
1
1
1
1
1
1
1
1
1
1
1
1
1
1
1
1
1
1
1
1
1
1
1
1
1
1
1
1
1
1
1
1
1
1
1
1
1
1
1
1
1
1
1
1
1
1
1
1
1
1
1
1
1
1
1
1
1
1
1
1
1
1
1
1
1
1
1
1
1
1
1
1
1
1
1
1
1
1
1
1
1
1
1
1
1
1
1
1
1
1
1
1
1
1
1
1
1
1
1
1
1
1
1
1
1
1
1
1
1
1
1
1
1
1
1
1
1
1
1
1
1
1
1
1
1
1
1
1
1
1
1
1
1
1
1
1
1
1
1
1
1
1
1
1
1
1
1
1
1
1
1
1
1
1
1
1
1
1
1
1
1
1
1
1
1
1
1
1
1
1
1
1
1
1
1
1
1
1
1
1
1
1
1
1
1
1
1
1
1
1
1
1
1
1
1
1
1
1
1
1
1
1
1
1
1
1
1
1
1
1
1
1
1
1
1
1
1
1
1
1
1
1
1
1
1
1
1
1
1
1
1
1
1
1
1
1
1
1
1
1
1
1
1
1
1
1
1
1
1
1
1
1
1
1
1
1
1
1
1
1
1
1
1
1
1
1
1
1
1
1
1
1
1
1
1
1
1
1
1
1
1
1
1
1
1
1
1
1
1
1
1
1
1
1
1
1
1
1
1
1
1
1
1
1
1
1
1
1
1
1
1
1
1
1
1
1
1
1
1
1
1
1
1
1
1
1
1
1
1
1
1
1
1
1
1
1
1
1
1
1
1
1
1
1
1
1
1
1
1
1
1
1
1
1
1
1
1
1
1
1
1
1
1
1
1
1
1
1
1
1
1
1
1
1
1
1
1
1
1
1
1
1
1
1
1
1
1
1
1
0.99999999
0.99999999
0.99999999
0.99999999
0.99999999
0.99999998
0.99999998
0.99999998
0.99999998
0.99999997
0.99999997
0.99999997
0.99999996
0.99999996
0.99999996
0.99999996
0.99999995
0.99999995
0.99999995
0.99999995
0.99999995
0.99999995
0.99999995
0.99999995
0.99999995
0.99999995
0.99999995
0.99999995
0.99999995
0.99999996
0.99999996
0.99999996
0.99999996
0.99999996
0.99999996
0.99999997
0.99999997
0.99999997
0.99999997
0.99999997
0.99999997
0.99999998
0.99999998
0.99999998
0.99999998
0.99999998
0.99999998
0.99999998
0.99999998
0.99999998
0.99999999
0.99999999
0.99999999
0.99999999
0.99999999
0.99999999
0.99999999
0.99999999
0.99999999
0.99999999
0.99999999
0.99999999
0.99999999
0.99999999
0.99999999
0.99999999
0.99999999
0.99999999
0.99999999
0.99999999
0.99999999
0.99999999
0.99999999
0.99999999
0.99999999
0.99999999
0.99999999
0.99999999
0.99999999
0.99999999
0.99999999
0.99999999
0.99999999
0.99999999
0.99999999
0.99999999
0.99999999
0.99999999
0.99999999
0.99999999
0.99999999
0.99999999
0.99999999
0.99999999
0.99999999
0.99999999
0.99999999
0.99999999
0.99999999
0.99999999
0.99999999
0.99999999
0.99999999
0.99999999
0.99999999
0.99999999
0.99999999
0.99999999
0.99999999
0.99999999
0.99999999
0.99999999
0.99999999
0.99999999
0.99999999
0.99999999
0.99999999
0.99999999
0.99999999
0.99999999
0.99999999
0.99999999
0.99999999
0.99999999
0.99999999
0.99999999
0.99999999
0.99999999
0.99999999
0.99999999
0.99999999
0.99999999
0.99999999
0.99999999
0.99999999
0.99999999
0.99999999
0.99999999
0.99999998
0.99999998
0.99999998
0.99999998
0.99999998
0.99999998
0.99999998
0.99999998
0.99999998
0.99999998
0.99999998
0.99999997
0.99999997
0.99999997
0.99999997
0.99999997
0.99999997
0.99999996
0.99999996
0.99999996
0.99999996
0.99999996
0.99999995
0.99999995
0.99999995
0.99999995
0.99999995
0.99999994
0.99999994
0.99999994
0.99999994
0.99999993
0.99999993
0.99999993
0.99999993
0.99999993
0.99999992
0.99999992
0.99999992
0.99999992
0.99999992
0.99999992
0.99999991
0.99999991
0.99999991
0.99999991
0.99999991
0.99999991
0.9999999
0.9999999
0.9999999
0.9999999
0.9999999
0.9999999
0.9999999
0.99999989
0.9999916
0.99998472
0.99997942
0.999975
0.99997101
0.9999672
0.99996341
0.99995956
0.99995563
0.99995162
0.99994756
0.9999435
0.99993949
0.99993561
0.99993193
0.99992853
0.99992549
0.99992286
0.99992072
0.9999191
0.99991802
0.99991752
0.99991757
0.99991817
0.99991929
0.99992087
0.99992287
0.99992524
0.99992792
0.99993083
0.99993393
0.99993716
0.99994046
0.99994378
0.99994709
0.99995036
0.99995354
0.99995661
0.99995956
0.99996238
0.99996505
0.99996757
0.99996994
0.99997215
0.99997421
0.99997613
0.9999779
0.99997954
0.99998105
0.99998244
0.99998371
0.99998489
0.99998596
0.99998694
0.99998784
0.99998866
0.99998941
0.9999901
0.99999073
0.9999913
0.99999182
0.9999923
0.99999274
0.99999313
0.9999935
0.99999383
0.99999413
0.99999441
0.99999466
0.9999949
0.99999511
0.9999953
0.99999548
0.99999564
0.99999579
0.99999592
0.99999605
0.99999616
0.99999626
0.99999636
0.99999644
0.99999652
0.99999659
0.99999665
0.99999671
0.99999676
0.9999968
0.99999684
0.99999688
0.99999691
0.99999694
0.99999696
0.99999698
0.999997
0.99999701
0.99999702
0.99999702
0.99999703
0.99999703
0.99999703
0.99999703
0.99999702
0.99999701
0.999997
0.99999699
0.99999698
0.99999697
0.99999695
0.99999693
0.99999691
0.99999689
0.99999687
0.99999685
0.99999682
0.9999968
0.99999677
0.99999674
0.99999671
0.99999668
0.99999665
0.99999662
0.99999659
0.99999656
0.99999652
0.99999649
0.99999645
0.99999642
0.99999638
0.99999635
0.99999631
0.99999627
0.99999623
0.99999619
0.99999616
0.99999612
0.99999608
0.99999604
0.999996
0.99999596
0.99999591
0.99999587
0.99999583
0.99999579
0.99999575
0.99999571
0.99999566
0.99999562
0.99999558
0.99999554
0.99999547
0.99999538
0.99999528
0.99999516
0.99999503
0.99999488
0.99999473
0.99999456
0.9999944
0.99999422
0.99999404
0.99999386
0.99999367
0.99999349
0.9999933
0.99999311
0.99999293
0.99999274
0.99999256
0.99999238
0.9999922
0.99999202
0.99999185
0.99999168
0.99999151
0.99999135
0.99999119
0.99999103
0.99999088
0.99999073
0.99999059
0.99999045
0.99999031
0.99999018
0.99999005
0.99998992
0.9999898
0.99998968
0.99998957
0.99998946
0.99998935
0.99998924
0.99998914
0.99998904
0.99998894
0.99998884
0.99998875
0.99998866
0.99998857
0.99998848
0.99998839
0.69566799
0.76048044
0.81400186
0.84146867
0.85770855
0.86810335
0.87512957
0.88007841
0.88368888
0.88642557
0.8886046
0.89045394
0.89214459
0.89380766
0.89554387
0.89742907
0.89951776
0.90184544
0.90443068
0.90727702
0.91037501
0.91370436
0.91723615
0.92093515
0.924762
0.92867527
0.93263334
0.93659597
0.94052554
0.94438802
0.94815358
0.95179699
0.95529772
0.95863983
0.96181178
0.96480603
0.96761863
0.97024875
0.97269823
0.97497104
0.9770729
0.97901086
0.98079292
0.98242773
0.98392429
0.98529179
0.98653937
0.98767598
0.9887103
0.98965064
0.99050487
0.99128042
0.99198423
0.99262274
0.99320192
0.99372728
0.99420385
0.99463624
0.99502867
0.99538496
0.99570859
0.9960027
0.99627014
0.99651348
0.99673506
0.99693695
0.99712106
0.99728907
0.99744253
0.9975828
0.99771112
0.99782862
0.9979363
0.99803506
0.99812571
0.99820899
0.99828555
0.99835601
0.99842088
0.99848066
0.99853579
0.99858667
0.99863364
0.99867704
0.99871717
0.99875429
0.99878863
0.99882044
0.99884989
0.99887719
0.99890248
0.99892594
0.99894769
0.99896787
0.99898658
0.99900394
0.99902005
0.999035
0.99904886
0.99906172
0.99907365
0.99908471
0.99909496
0.99910445
0.99911325
0.99912139
0.99912893
0.99913589
0.99914233
0.99914827
0.99915376
0.99915881
0.99916347
0.99916775
0.99917168
0.99917528
0.99917859
0.99918161
0.99918437
0.99918688
0.99918916
0.99919124
0.99919311
0.9991948
0.99919632
0.99919768
0.99919889
0.99919997
0.99920092
0.99920175
0.99920248
0.9992031
0.99920363
0.99920408
0.99920445
0.99920474
0.99920497
0.99920514
0.99920525
0.99920532
0.99920533
0.9992053
0.99920524
0.99920514
0.99920501
0.99920485
0.99920466
0.99920445
0.99920422
0.999204
0.99920377
0.99920354
0.99920331
0.99920305
0.99920268
0.99920222
0.99920167
0.99920105
0.99920037
0.99919964
0.99919886
0.99919805
0.99919721
0.99919635
0.99919547
0.99919458
0.99919368
0.99919278
0.99919188
0.99919099
0.9991901
0.99918922
0.99918835
0.99918749
0.99918665
0.99918582
0.99918501
0.99918422
0.99918345
0.99918269
0.99918196
0.99918124
0.99918054
0.99917986
0.9991792
0.99917856
0.99917793
0.99917732
0.99917673
0.99917616
0.9991756
0.99917505
0.99917452
0.999174
0.99917349
0.99917299
0.9991725
0.99917202
0.99917155
0.99917108
0.00017261574
0.00016930058
0.00020028965
0.024042069
0.047401783
0.067046131
0.082624367
0.094753378
0.10437869
0.11246998
0.11992882
0.1275715
0.13612698
0.14623788
0.15813249
0.17182107
0.18755747
0.20548774
0.22565697
0.24801812
0.27244322
0.29873623
0.3266472
0.35588712
0.38614245
0.41708896
0.44840416
0.4797779
0.51092104
0.54157188
0.57150054
0.60051152
0.62844442
0.65517337
0.68060532
0.70467748
0.72735431
0.7486241
0.76849548
0.78699403
0.80415897
0.82004016
0.83469538
0.84818795
0.86058463
0.87195393
0.88236466
0.89188479
0.90058056
0.90851576
0.9157513
0.92234483
0.92835055
0.93381913
0.93879767
0.94332977
0.94745565
0.95121225
0.95463344
0.95775015
0.96059059
0.96318046
0.96554309
0.96769964
0.96966932
0.97146949
0.97311589
0.97462274
0.97600287
0.97726791
0.97842834
0.97949364
0.98047236
0.98137225
0.98220027
0.98296277
0.98366543
0.98431344
0.98491147
0.98546376
0.98597414
0.9864461
0.9868828
0.98728711
0.98766164
0.98800877
0.98833064
0.98862925
0.98890637
0.98916367
0.98940262
0.98962462
0.98983092
0.99002266
0.99020091
0.99036664
0.99052075
0.99066406
0.99079733
0.99092125
0.99103649
0.99114362
0.99124322
0.99133578
0.9914218
0.9915017
0.99157589
0.99164477
0.99170868
0.99176796
0.99182291
0.99187382
0.99192096
0.99196458
0.99200491
0.99204217
0.99207657
0.9921083
0.99213754
0.99216445
0.99218919
0.99221192
0.99223276
0.99225185
0.99226931
0.99228525
0.99229979
0.99231301
0.99232502
0.9923359
0.99234574
0.99235461
0.99236258
0.99236972
0.9923761
0.99238177
0.99238679
0.99239121
0.99239509
0.99239845
0.99240136
0.99240384
0.99240593
0.99240767
0.99240908
0.99241021
0.99241107
0.99241169
0.99241209
0.9924123
0.99241234
0.99241221
0.99241196
0.99241161
0.99241126
0.99241091
0.99241056
0.99241021
0.99240978
0.99240921
0.99240851
0.99240769
0.99240678
0.99240579
0.99240473
0.99240362
0.99240246
0.99240127
0.99240005
0.99239882
0.99239758
0.99239633
0.99239509
0.99239385
0.99239262
0.9923914
0.9923902
0.99238902
0.99238787
0.99238673
0.99238562
0.99238454
0.99238348
0.99238245
0.99238144
0.99238046
0.99237951
0.99237858
0.99237767
0.99237679
0.99237593
0.9923751
0.99237428
0.99237348
0.99237269
0.99237192
0.99237116
0.99237042
0.99236968
0.99236895
1.4970961e-08
2.6379493e-08
3.8483668e-08
2.5177261e-06
6.7491592e-06
1.2053174e-05
1.8019692e-05
2.4429654e-05
3.1191835e-05
3.830331e-05
4.5828429e-05
5.3889159e-05
6.2660764e-05
7.2413303e-05
0.00057935777
0.0022749802
0.0053598967
0.010009709
0.016426682
0.024810058
0.035342554
0.048176553
0.063421378
0.081132921
0.10130662
0.12387438
0.1487056
0.17561196
0.20435545
0.23465862
0.26621633
0.29870779
0.33180829
0.36519984
0.39858019
0.43167015
0.46421891
0.49600744
0.52685032
0.55659595
0.5851256
0.61235153
0.63821441
0.66268033
0.6857376
0.70739349
0.72767103
0.74660601
0.76424425
0.78063911
0.79584928
0.80993698
0.82296629
0.83500194
0.84610815
0.85634789
0.86578214
0.8744695
0.88246578
0.88982385
0.89659345
0.9028212
0.9085506
0.91382208
0.91867311
0.92313832
0.92724964
0.93103646
0.93452578
0.93774237
0.94070893
0.94344622
0.94597326
0.94830741
0.95046454
0.95245914
0.95430446
0.95601258
0.95759453
0.95906039
0.96041936
0.96167986
0.96284956
0.96393551
0.96494412
0.96588129
0.96675239
0.96756238
0.96831579
0.96901676
0.96966912
0.97027639
0.97084178
0.97136827
0.97185861
0.97231531
0.97274072
0.97313698
0.9735061
0.97384991
0.97417012
0.97446833
0.97474599
0.97500448
0.97524507
0.97546893
0.97567717
0.97587082
0.97605082
0.97621807
0.9763734
0.9765176
0.97665138
0.97677542
0.97689038
0.97699683
0.97709534
0.97718643
0.97727059
0.97734828
0.97741994
0.97748596
0.97754672
0.97760259
0.97765389
0.97770094
0.97774403
0.97778344
0.97781942
0.97785222
0.97788207
0.97790917
0.97793374
0.97795594
0.97797597
0.97799398
0.97801013
0.97802456
0.97803741
0.9780488
0.97805884
0.97806765
0.97807533
0.97808197
0.97808767
0.9780925
0.97809654
0.97809986
0.97810252
0.9781046
0.97810614
0.9781072
0.97810783
0.97810806
0.97810795
0.97810753
0.97810683
0.97810589
0.97810483
0.97810377
0.97810271
0.97810165
0.97810046
0.978099
0.9780973
0.97809541
0.97809336
0.97809117
0.97808887
0.97808648
0.97808402
0.97808151
0.97807897
0.9780764
0.97807383
0.97807126
0.9780687
0.97806616
0.97806364
0.97806116
0.97805872
0.97805631
0.97805395
0.97805163
0.97804936
0.97804713
0.97804495
0.97804282
0.97804073
0.97803868
0.97803667
0.9780347
0.97803277
0.97803086
0.97802899
0.97802713
0.9780253
0.97802348
0.97802166
0.97801985
1.5442237e-12
3.8594128e-12
6.9104356e-12
2.7370721e-10
9.4615337e-10
2.0682306e-09
3.6497601e-09
5.6995406e-09
8.237717e-09
1.13001e-08
1.4941004e-08
1.9237019e-08
2.4292084e-08
3.0253034e-08
8.6418703e-08
3.0765611e-07
5.926143e-06
0.00011147326
0.00043179521
0.001118724
0.0023611525
0.0043785559
0.0074121695
0.011713477
0.017530808
0.025095135
0.03460633
0.046221063
0.060043354
0.076118498
0.094430642
0.114904
0.13740732
0.16176098
0.18774597
0.21511399
0.24359782
0.27292143
0.30280923
0.33299402
0.36322362
0.3932659
0.42291238
0.45198036
0.4803139
0.50778372
0.53428632
0.55974244
0.5840951
0.60730735
0.62935992
0.65024879
0.66998288
0.6885818
0.70607384
0.7224941
0.73788282
0.75228398
0.76574401
0.77831079
0.79003272
0.80095808
0.81113439
0.82060799
0.8294237
0.83762456
0.84525167
0.85234408
0.8589387
0.86507034
0.87077167
0.8760733
0.88100385
0.88558997
0.88985649
0.89382651
0.89752142
0.90096111
0.90416398
0.90714707
0.90992614
0.9125158
0.91492952
0.91717979
0.91927813
0.92123522
0.92306092
0.92476435
0.92635394
0.92783751
0.9292223
0.930515
0.93172182
0.93284852
0.93390043
0.93488253
0.9357994
0.93665534
0.93745432
0.93820005
0.93889597
0.93954531
0.94015105
0.940716
0.94124277
0.94173379
0.94219134
0.94261756
0.94301444
0.94338385
0.94372753
0.94404714
0.94434419
0.94462014
0.94487634
0.94511406
0.94533448
0.94553873
0.94572785
0.94590284
0.94606462
0.94621405
0.94635196
0.94647912
0.94659625
0.94670403
0.94680308
0.94689402
0.9469774
0.94705375
0.94712356
0.94718731
0.94724541
0.94729829
0.94734632
0.94738987
0.94742926
0.94746481
0.94749682
0.94752556
0.94755129
0.94757424
0.94759464
0.9476127
0.94762861
0.94764255
0.94765469
0.94766519
0.9476742
0.94768184
0.94768824
0.94769352
0.94769778
0.94770113
0.94770366
0.94770545
0.94770657
0.9477071
0.94770711
0.94770665
0.94770578
0.94770456
0.94770316
0.94770175
0.94770035
0.94769895
0.94769753
0.9476958
0.94769381
0.94769161
0.94768923
0.9476867
0.94768406
0.94768133
0.94767853
0.94767568
0.94767281
0.94766993
0.94766704
0.94766417
0.94766132
0.9476585
0.94765572
0.94765297
0.94765027
0.94764762
0.94764501
0.94764245
0.94763994
0.94763747
0.94763504
0.94763265
0.94763029
0.94762796
0.94762566
0.94762337
0.94762109
0.94761881
0.94761653
0.94761422
1.6369783e-16
5.293886e-16
1.1293546e-15
2.9049074e-14
1.2295761e-13
3.2145363e-13
6.6108213e-13
1.1788736e-12
1.9155691e-12
2.9184241e-12
4.2438759e-12
5.9606716e-12
8.153892e-12
1.0931844e-11
1.9958395e-11
5.3485784e-11
7.1347551e-10
1.3272874e-08
1.912512e-06
1.9353768e-05
8.0311778e-05
0.00023393361
0.00055562546
0.0011502581
0.0021527931
0.0037258724
0.0060543206
0.0093369185
0.013776162
0.019566969
0.02688539
0.03587835
0.046655252
0.05928205
0.073778098
0.090115764
0.10822262
0.12798578
0.14925778
0.17186365
0.19560836
0.22028429
0.24567838
0.27157848
0.29777887
0.32408471
0.35031552
0.37630761
0.40191562
0.4270132
0.45149312
0.47526671
0.49826295
0.52042726
0.54172001
0.56211506
0.58159808
0.60016506
0.61782075
0.63457727
0.65045276
0.66547024
0.67965651
0.69304123
0.7056561
0.71753416
0.72870923
0.73921535
0.74908646
0.75835599
0.76705667
0.77522026
0.78287747
0.79005778
0.79678944
0.80309935
0.8090131
0.81455494
0.81974782
0.82461339
0.82917204
0.83344298
0.83744424
0.84119276
0.84470441
0.84799409
0.85107575
0.85396244
0.85666639
0.85919903
0.86157107
0.86379253
0.86587279
0.86782061
0.86964421
0.87135126
0.87294898
0.8744441
0.87584293
0.87715139
0.87837503
0.87951906
0.88058836
0.88158751
0.8825208
0.88339228
0.88420574
0.88496474
0.88567264
0.88633259
0.88694755
0.8875203
0.88805347
0.88854953
0.88901079
0.88943945
0.88983755
0.89020705
0.89054976
0.89086739
0.89116157
0.89143381
0.89168555
0.89191814
0.89213284
0.89233084
0.89251326
0.89268117
0.89283555
0.89297734
0.8931074
0.89322657
0.89333561
0.89343524
0.89352615
0.89360897
0.8936843
0.8937527
0.89381468
0.89387075
0.89392134
0.8939669
0.89400782
0.89404447
0.8940772
0.89410633
0.89413216
0.89415497
0.89417502
0.89419256
0.89420781
0.89422096
0.89423223
0.89424178
0.89424977
0.89425637
0.89426171
0.89426591
0.8942691
0.89427139
0.89427288
0.89427365
0.89427379
0.89427338
0.89427249
0.89427118
0.89426952
0.89426787
0.89426622
0.89426456
0.89426291
0.89426125
0.89425949
0.89425752
0.8942554
0.89425316
0.89425081
0.8942484
0.89424593
0.89424342
0.8942409
0.89423837
0.89423585
0.89423334
0.89423085
0.89422839
0.89422595
0.89422355
0.89422117
0.89421882
0.89421649
0.89421418
0.89421189
0.89420961
0.89420733
0.89420505
0.89420275
0.89420042
0.89419804
0.89419561
1.7602377e-20
7.0000497e-20
1.7427004e-19
3.1137094e-18
1.543499e-17
4.7287125e-17
1.1223292e-16
2.2751315e-16
4.1477071e-16
7.0113987e-16
1.1207025e-15
1.7164414e-15
2.5428963e-15
3.670075e-15
5.8875435e-15
1.2269706e-14
1.0234427e-13
1.8128482e-12
2.4445602e-10
2.8124192e-09
9.8566007e-07
6.633232e-06
2.6028186e-05
7.7290032e-05
0.00019165154
0.00041741441
0.00082308946
0.0014990653
0.002557312
0.0041288848
0.0063592923
0.0094020835
0.013411229
0.018533003
0.024898104
0.032614669
0.041762714
0.052390332
0.064511795
0.07810752
0.093125717
0.10948543
0.12708062
0.14578492
0.16545672
0.18594425
0.20709046
0.22873741
0.25073014
0.27291993
0.29516678
0.3173414
0.33932651
0.36101756
0.38232311
0.40316471
0.42347649
0.44320459
0.46230628
0.48074914
0.49851
0.51557399
0.53193352
0.54758735
0.56253964
0.57679913
0.59037836
0.60329297
0.61556105
0.62720258
0.638239
0.6486927
0.65858673
0.66794444
0.67678928
0.68514455
0.6930332
0.70047775
0.70750017
0.71412174
0.72036305
0.72624394
0.73178345
0.73699984
0.74191053
0.74653219
0.75088065
0.75497101
0.7588176
0.76243401
0.76583314
0.76902722
0.77202781
0.77484587
0.77749178
0.77997532
0.78230577
0.7844919
0.78654198
0.78846385
0.79026489
0.79195211
0.7935321
0.7950111
0.79639501
0.7976894
0.79889953
0.80003038
0.80108664
0.80207276
0.80299292
0.8038511
0.80465103
0.80539624
0.80609009
0.80673572
0.8073361
0.80789406
0.80841224
0.80889316
0.80933917
0.8097525
0.81013526
0.81048943
0.81081687
0.81111936
0.81139854
0.81165597
0.81189314
0.81211141
0.81231209
0.8124964
0.8126655
0.81282044
0.81296226
0.81309189
0.81321023
0.8133181
0.8134163
0.81350554
0.81358652
0.81365986
0.81372617
0.81378601
0.81383988
0.81388828
0.81393166
0.81397043
0.81400498
0.81403567
0.81406284
0.81408681
0.81410785
0.81412624
0.81414223
0.81415603
0.81416787
0.81417793
0.81418639
0.81419342
0.81419917
0.81420377
0.81420735
0.81421004
0.81421192
0.8142131
0.81421367
0.8142137
0.81421327
0.81421244
0.81421127
0.81420982
0.81420824
0.81420666
0.81420508
0.8142035
0.81420192
0.81420033
0.81419875
0.81419717
0.81419559
0.81419401
0.81419243
0.81419085
0.81418927
0.81418769
0.81418611
0.81418453
0.81418295
0.81418137
0.81417979
0.8141782
0.81417662
0.81417504
0.81417346
0.81417185
0.81417019
0.81416845
0.81416663
0.81416469
1.9075626e-24
9.0348548e-24
2.5919305e-23
3.4488091e-22
1.9336111e-21
6.8332951e-21
1.8578256e-20
4.2681752e-20
8.7235527e-20
1.6367361e-19
2.8776842e-19
4.8096321e-19
7.7218988e-19
1.2004297e-18
1.9172692e-18
3.5118108e-18
1.8047182e-17
2.8481223e-16
3.5880764e-14
4.6687087e-13
1.5395488e-10
6.7442289e-08
6.7492523e-07
3.4038312e-06
1.2232149e-05
3.5441664e-05
8.806695e-05
0.00019464233
0.00039186888
0.00073075395
0.0012777912
0.0021148496
0.0033376031
0.0050525265
0.0073726686
0.010412565
0.014282734
0.019084238
0.024903743
0.031809423
0.039847974
0.049042835
0.059393647
0.070876849
0.083447251
0.097040393
0.11157544
0.12695844
0.14308566
0.15984689
0.17712861
0.19481676
0.21279924
0.230968
0.24922063
0.26746172
0.28560367
0.30356734
0.32128225
0.33868666
0.35572737
0.37235942
0.38854564
0.4042561
0.41946755
0.43416283
0.4483302
0.4619628
0.475058
0.48761688
0.49964371
0.51114544
0.52213129
0.53261234
0.54260115
0.55211148
0.56115802
0.56975608
0.57792145
0.58567019
0.59301846
0.59998243
0.60657814
0.61282141
0.61872778
0.62431247
0.62959027
0.63457559
0.63928236
0.64372406
0.64791367
0.65186372
0.65558623
0.65909273
0.6623943
0.66550153
0.66842455
0.67117304
0.67375627
0.67618305
0.67846181
0.68060056
0.68260696
0.68448829
0.68625146
0.68790307
0.68944939
0.69089637
0.69224967
0.69351467
0.69469648
0.69579993
0.69682963
0.69778993
0.69868497
0.69951867
0.70029473
0.70101667
0.70168782
0.70231133
0.70289017
0.70342715
0.70392495
0.70438606
0.70481287
0.70520761
0.70557239
0.7059092
0.70621993
0.70650632
0.70677006
0.70701269
0.7072357
0.70744046
0.70762826
0.70780034
0.70795782
0.70810178
0.70823322
0.70835307
0.70846223
0.7085615
0.70865165
0.7087334
0.70880741
0.70887431
0.70893467
0.70898904
0.70903791
0.70908175
0.709121
0.70915604
0.70918725
0.70921499
0.70923955
0.70926124
0.70928033
0.70929707
0.70931168
0.70932438
0.70933536
0.70934479
0.70935286
0.70935969
0.70936543
0.7093702
0.70937411
0.70937727
0.70937977
0.70938169
0.70938311
0.7093841
0.70938472
0.70938503
0.70938506
0.70938487
0.70938449
0.70938396
0.70938331
0.70938256
0.70938173
0.70938084
0.70937991
0.70937894
0.70937796
0.70937696
0.70937595
0.70937493
0.70937391
0.70937288
0.70937185
0.7093708
0.70936973
0.70936864
0.70936751
0.70936637
0.70936523
0.70936409
0.70936295
0.7093618
2.077182e-28
1.1491396e-27
3.7806353e-27
4.0270771e-26
2.4926858e-25
1.0059146e-24
3.118153e-24
8.1021873e-24
1.8553496e-23
3.8638544e-23
7.474869e-23
1.3638395e-22
2.3737065e-22
3.9757591e-22
6.6109648e-22
1.1673958e-21
4.0391311e-21
5.2003282e-20
6.0681979e-18
8.9193888e-17
2.8265929e-14
1.2572112e-11
6.4842991e-09
8.7406621e-08
5.362181e-07
2.2488292e-06
7.4131089e-06
2.0580801e-05
5.0120678e-05
0.00010995707
0.00022140292
0.00041482711
0.00073087216
0.0012209676
0.001946962
0.0029798064
0.0043973401
0.0062813415
0.0087140843
0.011774687
0.015535546
0.020059114
0.025395241
0.031579207
0.03863053
0.04655254
0.055332677
0.064943407
0.075343653
0.086480576
0.098291609
0.1107066
0.12364993
0.13704261
0.15080416
0.16485429
0.17911442
0.19350886
0.20796583
0.2224182
0.23680399
0.2510668
0.26515587
0.27902622
0.29263847
0.30595873
0.3189583
0.33161338
0.34390474
0.35581734
0.36733996
0.37846485
0.38918732
0.39950545
0.4094197
0.41893265
0.42804866
0.43677365
0.44511482
0.45308046
0.46067974
0.46792253
0.47481925
0.48138072
0.48761808
0.49354263
0.49916577
0.50449892
0.50955345
0.51434064
0.51887159
0.52315724
0.52720827
0.53103515
0.53464806
0.5380569
0.54127126
0.54430045
0.54715345
0.54983894
0.55236526
0.55474047
0.55697229
0.55906817
0.56103521
0.56288026
0.56460985
0.56623023
0.56774739
0.56916704
0.57049463
0.57173535
0.57289418
0.57397582
0.57498477
0.5759253
0.57680148
0.57761716
0.578376
0.57908147
0.57973688