/*--------------------------------*- C++ -*----------------------------------*\
| =========                 |                                                 |
| \\      /  F ield         | OpenFOAM: The Open Source CFD Toolbox           |
|  \\    /   O peration     | Version:  2406                                  |
|   \\  /    A nd           | Website:  www.openfoam.com                      |
|    \\/     M anipulation  |                                                 |
\*---------------------------------------------------------------------------*/
FoamFile
{
    version     2.0;
    format      ascii;
    arch        "LSB;label=32;scalar=64";
    class       volVectorField;
    location    "1119";
    object      U;
}
// * * * * * * * * * * * * * * * * * * * * * * * * * * * * * * * * * * * * * //

dimensions      [0 1 -1 0 0 0 0];

internalField   nonuniform List<vector> 
7200
(
(-0.00013376137 0.00012627975 0)
(-0.00078087611 0.0001999133 0)
(-0.0015085148 0.00018597595 0)
(-0.0020796921 0.00013127711 0)
(-0.0023881933 7.1115e-05 0)
(-0.0024473839 1.75148e-05 0)
(-0.0023053349 -2.4617859e-05 0)
(-0.0020171876 -5.4415081e-05 0)
(-0.0016340428 -7.3108052e-05 0)
(-0.0011982461 -8.2796703e-05 0)
(-0.00074222323 -8.5708806e-05 0)
(-0.00028928394 -8.3896492e-05 0)
(0.00014490359 -7.9009773e-05 0)
(0.00055055765 -7.2351302e-05 0)
(0.0009222114 -6.4892359e-05 0)
(0.001257443 -5.7259785e-05 0)
(0.0015559291 -4.9839997e-05 0)
(0.0018186881 -4.2859933e-05 0)
(0.0020475521 -3.6438262e-05 0)
(0.0022448071 -3.0622772e-05 0)
(0.0024129524 -2.5417084e-05 0)
(0.0025545434 -2.0798726e-05 0)
(0.0026720934 -1.6730928e-05 0)
(0.0027680136 -1.3170115e-05 0)
(0.0028445797 -1.0070494e-05 0)
(0.0029039151 -7.3867736e-06 0)
(0.0029479844 -5.0756865e-06 0)
(0.002978594 -3.0967983e-06 0)
(0.0029973963 -1.4128818e-06 0)
(0.0030058973 9.9028678e-09 0)
(0.0030054649 1.2019727e-06 0)
(0.0029973379 2.1910545e-06 0)
(0.0029826329 3.0024101e-06 0)
(0.0029623528 3.6587939e-06 0)
(0.0029373954 4.180516e-06 0)
(0.0029085617 4.585615e-06 0)
(0.0028765645 4.8900697e-06 0)
(0.0028420361 5.108e-06 0)
(0.0028055354 5.2518569e-06 0)
(0.002767555 5.3325969e-06 0)
(0.0027285274 5.3598415e-06 0)
(0.0026888308 5.3420215e-06 0)
(0.0026487945 5.2865077e-06 0)
(0.0026087039 5.1997294e-06 0)
(0.0025688052 5.0872813e-06 0)
(0.0025293089 4.9540198e-06 0)
(0.0024903946 4.8041497e-06 0)
(0.0024522136 4.6413014e-06 0)
(0.0024148923 4.4686008e-06 0)
(0.002378535 4.288731e-06 0)
(0.0023432267 4.1039873e-06 0)
(0.0023090349 3.9163259e-06 0)
(0.0022760119 3.7274073e-06 0)
(0.0022441969 3.5386345e-06 0)
(0.0022136171 3.3511863e-06 0)
(0.0021842898 3.1660474e-06 0)
(0.0021562232 2.9840338e-06 0)
(0.0021294179 2.8058156e-06 0)
(0.0021038677 2.6319374e-06 0)
(0.0020795608 2.4628351e-06 0)
(0.0020564806 2.2988512e-06 0)
(0.0020346061 2.1402481e-06 0)
(0.002013913 1.9872195e-06 0)
(0.001994374 1.8399002e-06 0)
(0.0019759593 1.6983749e-06 0)
(0.0019586372 1.5626856e-06 0)
(0.0019423747 1.432838e-06 0)
(0.0019271371 1.3088071e-06 0)
(0.0019128892 1.190542e-06 0)
(0.001899595 1.07797e-06 0)
(0.0018872182 9.7100043e-07 0)
(0.0018757222 8.6952716e-07 0)
(0.0018650706 7.7343175e-07 0)
(0.0018552268 6.825855e-07 0)
(0.0018461551 5.968514e-07 0)
(0.0018378196 5.1608585e-07 0)
(0.0018301853 4.4014007e-07 0)
(0.0018232178 3.6886135e-07 0)
(0.0018168833 3.0209415e-07 0)
(0.0018111488 2.3968098e-07 0)
(0.001805982 1.8146322e-07 0)
(0.0018013518 1.2728185e-07 0)
(0.0017972275 7.6977992e-08 0)
(0.0017935798 3.039352e-08 0)
(0.0017903801 -1.2628535e-08 0)
(0.0017876008 -5.2243551e-08 0)
(0.0017852154 -8.860496e-08 0)
(0.0017831981 -1.2186393e-07 0)
(0.0017815243 -1.5216907e-07 0)
(0.0017801705 -1.7966623e-07 0)
(0.001779114 -2.044982e-07 0)
(0.0017783331 -2.268046e-07 0)
(0.001777807 -2.4672169e-07 0)
(0.001777516 -2.6438221e-07 0)
(0.0017774413 -2.7991537e-07 0)
(0.001777565 -2.9344682e-07 0)
(0.00177787 -3.0509717e-07 0)
(0.0017783402 -3.1498367e-07 0)
(0.0017789603 -3.2321994e-07 0)
(0.0017797159 -3.2991548e-07 0)
(0.0017805934 -3.3517603e-07 0)
(0.0017815799 -3.3910328e-07 0)
(0.0017826633 -3.4179441e-07 0)
(0.0017838322 -3.4334276e-07 0)
(0.0017850761 -3.4383761e-07 0)
(0.0017863849 -3.4336406e-07 0)
(0.0017877493 -3.4200338e-07 0)
(0.0017891608 -3.3983298e-07 0)
(0.0017906112 -3.3692629e-07 0)
(0.0017920929 -3.3335307e-07 0)
(0.0017935992 -3.2917937e-07 0)
(0.0017951236 -3.2446758e-07 0)
(0.0017966601 -3.1927655e-07 0)
(0.0017982033 -3.1366172e-07 0)
(0.0017997484 -3.0767517e-07 0)
(0.0018012906 -3.0136579e-07 0)
(0.0018028259 -2.9477934e-07 0)
(0.0018043506 -2.8795857e-07 0)
(0.0018058611 -2.8094334e-07 0)
(0.0018073546 -2.7377069e-07 0)
(0.0018088281 -2.66475e-07 0)
(0.0018102794 -2.5908805e-07 0)
(0.0018117063 -2.5163918e-07 0)
(0.0018131069 -2.441554e-07 0)
(0.0018144795 -2.3666147e-07 0)
(0.0018158228 -2.2918002e-07 0)
(0.0018171355 -2.2173169e-07 0)
(0.0018184168 -2.1433521e-07 0)
(0.0018196656 -2.0700749e-07 0)
(0.0018208815 -1.9976374e-07 0)
(0.001822064 -1.926176e-07 0)
(0.0018232126 -1.8558117e-07 0)
(0.0018243273 -1.7866514e-07 0)
(0.0018254078 -1.7187889e-07 0)
(0.0018264543 -1.6523055e-07 0)
(0.0018274669 -1.587271e-07 0)
(0.0018284457 -1.5237446e-07 0)
(0.0018293911 -1.4617753e-07 0)
(0.0018303035 -1.4014031e-07 0)
(0.0018311832 -1.3426592e-07 0)
(0.0018320308 -1.2855673e-07 0)
(0.0018328469 -1.2301434e-07 0)
(0.0018336319 -1.1763974e-07 0)
(0.0018343866 -1.1243327e-07 0)
(0.0018351115 -1.0739475e-07 0)
(0.0018358075 -1.0252349e-07 0)
(0.0018364751 -9.781834e-08 0)
(0.0018371151 -9.3277763e-08 0)
(0.0018377283 -8.8899849e-08 0)
(0.0018383155 -8.4682364e-08 0)
(0.0018388773 -8.0622793e-08 0)
(0.0018394145 -7.6718368e-08 0)
(0.001839928 -7.2966106e-08 0)
(0.0018404185 -6.9362834e-08 0)
(0.0018408867 -6.5905221e-08 0)
(0.0018413334 -6.2589801e-08 0)
(0.0018417594 -5.9413002e-08 0)
(0.0018421654 -5.637116e-08 0)
(0.0018425522 -5.3460551e-08 0)
(0.0018429204 -5.0677395e-08 0)
(0.0018432708 -4.8017893e-08 0)
(0.001843604 -4.547822e-08 0)
(0.0018439209 -4.305456e-08 0)
(0.0018442219 -4.0743104e-08 0)
(0.0018445078 -3.8540075e-08 0)
(0.0018447792 -3.6441723e-08 0)
(0.0018450368 -3.4444353e-08 0)
(0.0018452811 -3.2544317e-08 0)
(0.0018455127 -3.0738037e-08 0)
(0.0018457322 -2.9021994e-08 0)
(0.0018459401 -2.7392754e-08 0)
(0.0018461369 -2.5846956e-08 0)
(0.0018463233 -2.4381332e-08 0)
(0.0018464996 -2.2992694e-08 0)
(0.0018466664 -2.1677959e-08 0)
(0.0018468241 -2.0434132e-08 0)
(0.0018469733 -1.9258329e-08 0)
(0.0018471142 -1.8147761e-08 0)
(0.0018472473 -1.7099761e-08 0)
(0.0018473731 -1.6111763e-08 0)
(0.0018474919 -1.5181336e-08 0)
(0.0018476042 -1.4306161e-08 0)
(0.0018477102 -1.3484074e-08 0)
(0.0018478103 -1.2713046e-08 0)
(0.0018479049 -1.1991244e-08 0)
(0.0018479943 -1.1317035e-08 0)
(0.0018480787 -1.0689099e-08 0)
(0.0018481587 -1.0106527e-08 0)
(0.0018482343 -9.5691639e-09 0)
(0.001848306 -9.0781588e-09 0)
(0.0018483741 -8.6373405e-09 0)
(0.0018484389 -8.255952e-09 0)
(0.0018485008 -7.9545563e-09 0)
(0.0018485603 -7.7769488e-09 0)
(0.0018486181 -7.8191786e-09 0)
(0.0018486754 -8.2946904e-09 0)
(0.0018487338 -9.5400646e-09 0)
(0.0018487961 -1.1815848e-08 0)
(0.0018488757 -1.7716634e-08 0)
(0.0018489854 -3.8516823e-08 0)
(-0.00029374775 0.00084473768 0)
(-0.0016904299 0.001389787 0)
(-0.0030283454 0.0012461447 0)
(-0.0039448214 0.00080767698 0)
(-0.0043085415 0.00031928885 0)
(-0.0041822531 -0.00010814018 0)
(-0.0036779287 -0.00043641968 0)
(-0.0029105765 -0.00066275808 0)
(-0.001980345 -0.00080024444 0)
(-0.00096659366 -0.00086720697 0)
(7.1710948e-05 -0.0008817761 0)
(0.0010927852 -0.00085980191 0)
(0.002068705 -0.00081393934 0)
(0.0029818959 -0.00075375056 0)
(0.0038223665 -0.00068617555 0)
(0.004585528 -0.00061600393 0)
(0.0052704817 -0.0005464181 0)
(0.0058787849 -0.00047944144 0)
(0.0064135699 -0.00041628216 0)
(0.0068789249 -0.00035759041 0)
(0.0072794661 -0.00030364431 0)
(0.0076200463 -0.00025448073 0)
(0.0079055612 -0.00020998499 0)
(0.0081408214 -0.00016995132 0)
(0.0083304719 -0.00013412276 0)
(0.0084789412 -0.00010221706 0)
(0.0085904127 -7.3943369e-05 0)
(0.0086688098 -4.9012806e-05 0)
(0.0087177905 -2.7145162e-05 0)
(0.0087407495 -8.0732191e-06 0)
(0.0087408243 8.4547206e-06 0)
(0.0087209034 2.2677176e-05 0)
(0.0086836332 3.4819375e-05 0)
(0.0086314281 4.509126e-05 0)
(0.0085664824 5.3686919e-05 0)
(0.0084907844 6.07849e-05 0)
(0.0084061293 6.6548864e-05 0)
(0.0083141326 7.1128363e-05 0)
(0.0082162432 7.4659679e-05 0)
(0.0081137561 7.7266675e-05 0)
(0.0080078241 7.9061644e-05 0)
(0.0078994698 8.0146142e-05 0)
(0.0077895968 8.0611791e-05 0)
(0.0076789994 8.0541055e-05 0)
(0.007568373 8.0007986e-05 0)
(0.007458323 7.907893e-05 0)
(0.0073493732 7.7813194e-05 0)
(0.007241974 7.6263677e-05 0)
(0.0071365093 7.4477454e-05 0)
(0.0070333036 7.2496324e-05 0)
(0.0069326278 7.0357317e-05 0)
(0.0068347051 6.8093158e-05 0)
(0.006739716 6.5732699e-05 0)
(0.0066478032 6.3301305e-05 0)
(0.0065590755 6.0821217e-05 0)
(0.0064736121 5.8311876e-05 0)
(0.0063914658 5.5790218e-05 0)
(0.0063126662 5.3270938e-05 0)
(0.0062372229 5.0766736e-05 0)
(0.0061651274 4.8288534e-05 0)
(0.0060963561 4.5845666e-05 0)
(0.0060308719 4.3446063e-05 0)
(0.0059686265 4.1096403e-05 0)
(0.0059095616 3.8802255e-05 0)
(0.0058536107 3.6568206e-05 0)
(0.0058007004 3.4397975e-05 0)
(0.0057507515 3.2294511e-05 0)
(0.0057036803 3.0260086e-05 0)
(0.005659399 2.8296373e-05 0)
(0.0056178173 2.640452e-05 0)
(0.0055788425 2.4585211e-05 0)
(0.0055423806 2.2838726e-05 0)
(0.0055083366 2.116499e-05 0)
(0.0054766152 1.9563616e-05 0)
(0.0054471212 1.803395e-05 0)
(0.0054197596 1.6575102e-05 0)
(0.0053944366 1.5185982e-05 0)
(0.0053710593 1.3865324e-05 0)
(0.0053495364 1.2611716e-05 0)
(0.005329778 1.1423619e-05 0)
(0.0053116962 1.0299389e-05 0)
(0.005295205 9.2372942e-06 0)
(0.0052802205 8.2355333e-06 0)
(0.0052666611 7.2922472e-06 0)
(0.0052544476 6.4055338e-06 0)
(0.0052435032 5.5734592e-06 0)
(0.0052337534 4.7940681e-06 0)
(0.0052251264 4.0653934e-06 0)
(0.005217553 3.3854646e-06 0)
(0.0052109663 2.7523153e-06 0)
(0.0052053023 2.1639897e-06 0)
(0.0052004993 1.6185494e-06 0)
(0.0051964983 1.114078e-06 0)
(0.0051932429 6.486866e-07 0)
(0.0051906789 2.205178e-07 0)
(0.0051887549 -1.7224994e-07 0)
(0.0051874217 -5.3140144e-07 0)
(0.0051866327 -8.5867962e-07 0)
(0.0051863433 -1.1557843e-06 0)
(0.0051865116 -1.4243648e-06 0)
(0.0051870975 -1.666026e-06 0)
(0.0051880633 -1.8823241e-06 0)
(0.0051893733 -2.0747642e-06 0)
(0.0051909939 -2.2448012e-06 0)
(0.0051928935 -2.3938375e-06 0)
(0.0051950421 -2.5232228e-06 0)
(0.005197412 -2.6342551e-06 0)
(0.0051999768 -2.7281797e-06 0)
(0.0052027121 -2.8061898e-06 0)
(0.005205595 -2.8694269e-06 0)
(0.0052086042 -2.9189816e-06 0)
(0.0052117198 -2.9558936e-06 0)
(0.0052149234 -2.9811528e-06 0)
(0.005218198 -2.9957005e-06 0)
(0.0052215278 -3.0004301e-06 0)
(0.0052248982 -2.9961884e-06 0)
(0.0052282959 -2.9837771e-06 0)
(0.0052317086 -2.9639534e-06 0)
(0.0052351251 -2.9374315e-06 0)
(0.0052385351 -2.9048842e-06 0)
(0.0052419294 -2.8669438e-06 0)
(0.0052452995 -2.8242039e-06 0)
(0.0052486379 -2.7772206e-06 0)
(0.0052519377 -2.726514e-06 0)
(0.0052551929 -2.6725696e-06 0)
(0.005258398 -2.6158399e-06 0)
(0.0052615484 -2.5567455e-06 0)
(0.0052646398 -2.495677e-06 0)
(0.0052676687 -2.432996e-06 0)
(0.0052706319 -2.3690365e-06 0)
(0.0052735269 -2.3041065e-06 0)
(0.0052763516 -2.2384892e-06 0)
(0.0052791041 -2.1724442e-06 0)
(0.0052817831 -2.1062089e-06 0)
(0.0052843876 -2.0399998e-06 0)
(0.0052869169 -1.9740133e-06 0)
(0.0052893706 -1.9084273e-06 0)
(0.0052917485 -1.8434021e-06 0)
(0.0052940507 -1.7790816e-06 0)
(0.0052962776 -1.7155942e-06 0)
(0.0052984297 -1.6530538e-06 0)
(0.0053005077 -1.5915609e-06 0)
(0.0053025124 -1.5312033e-06 0)
(0.0053044448 -1.4720572e-06 0)
(0.0053063061 -1.4141879e-06 0)
(0.0053080975 -1.3576506e-06 0)
(0.0053098204 -1.3024913e-06 0)
(0.0053114762 -1.2487472e-06 0)
(0.0053130662 -1.1964478e-06 0)
(0.0053145922 -1.1456153e-06 0)
(0.0053160557 -1.0962651e-06 0)
(0.0053174583 -1.0484067e-06 0)
(0.0053188017 -1.002044e-06 0)
(0.0053200877 -9.5717587e-07 0)
(0.0053213178 -9.1379665e-07 0)
(0.0053224938 -8.7189659e-07 0)
(0.0053236174 -8.314623e-07 0)
(0.0053246904 -7.924771e-07 0)
(0.0053257144 -7.5492143e-07 0)
(0.0053266912 -7.1877317e-07 0)
(0.0053276224 -6.8400797e-07 0)
(0.0053285096 -6.5059957e-07 0)
(0.0053293545 -6.1852005e-07 0)
(0.0053301587 -5.8774011e-07 0)
(0.0053309238 -5.582293e-07 0)
(0.0053316513 -5.2995625e-07 0)
(0.0053323427 -5.0288887e-07 0)
(0.0053329996 -4.7699454e-07 0)
(0.0053336233 -4.5224027e-07 0)
(0.0053342152 -4.2859288e-07 0)
(0.0053347768 -4.0601917e-07 0)
(0.0053353093 -3.8448597e-07 0)
(0.0053358141 -3.6396037e-07 0)
(0.0053362925 -3.4440976e-07 0)
(0.0053367455 -3.2580197e-07 0)
(0.0053371745 -3.0810538e-07 0)
(0.0053375806 -2.9128898e-07 0)
(0.0053379648 -2.7532251e-07 0)
(0.0053383283 -2.6017654e-07 0)
(0.0053386721 -2.4582256e-07 0)
(0.0053389971 -2.3223312e-07 0)
(0.0053393045 -2.1938197e-07 0)
(0.0053395951 -2.0724422e-07 0)
(0.0053398698 -1.9579659e-07 0)
(0.0053401296 -1.8501781e-07 0)
(0.0053403752 -1.7488911e-07 0)
(0.0053406076 -1.6539515e-07 0)
(0.0053408274 -1.5652553e-07 0)
(0.0053410357 -1.4827756e-07 0)
(0.0053412331 -1.4066113e-07 0)
(0.0053414206 -1.3370809e-07 0)
(0.0053415989 -1.2748968e-07 0)
(0.005341769 -1.2214961e-07 0)
(0.0053419321 -1.1796525e-07 0)
(0.0053420895 -1.1545904e-07 0)
(0.0053422431 -1.1558669e-07 0)
(0.005342395 -1.199853e-07 0)
(0.0053425484 -1.3125714e-07 0)
(0.0053427176 -1.5338466e-07 0)
(0.0053429185 -1.8853932e-07 0)
(-0.0003993648 0.0019626861 0)
(-0.0020686126 0.0029420608 0)
(-0.0032826968 0.0024072928 0)
(-0.0038303844 0.0013519538 0)
(-0.0037166532 0.00027138434 0)
(-0.0030909272 -0.00063192 0)
(-0.0021094602 -0.001300453 0)
(-0.00090687963 -0.0017442892 0)
(0.00041302928 -0.0020006381 0)
(0.0017745872 -0.0021126695 0)
(0.0031252705 -0.0021196963 0)
(0.0044294961 -0.0020542484 0)
(0.0056642252 -0.0019416739 0)
(0.0068153572 -0.0018008032 0)
(0.0078751384 -0.0016451406 0)
(0.0088402852 -0.0014840944 0)
(0.0097106064 -0.0013240221 0)
(0.010488024 -0.0011690696 0)
(0.011175876 -0.0010218151 0)
(0.01177842 -0.00088374722 0)
(0.012300482 -0.0007556115 0)
(0.012747204 -0.0006376552 0)
(0.013123871 -0.00052979834 0)
(0.013435779 -0.00043175085 0)
(0.013688154 -0.00034309216 0)
(0.013886081 -0.00026332468 0)
(0.014034465 -0.00019190978 0)
(0.014137998 -0.00012829192 0)
(0.014201143 -7.1915103e-05 0)
(0.014228116 -2.2234551e-05 0)
(0.014222886 2.1275871e-05 0)
(0.014189166 5.9127174e-05 0)
(0.01413041 9.1811506e-05 0)
(0.014049824 0.00011979584 0)
(0.013950362 0.00014351947 0)
(0.013834742 0.00016339336 0)
(0.013705453 0.00017980032 0)
(0.013564767 0.00019309555 0)
(0.013414746 0.00020360744 0)
(0.013257261 0.00021163862 0)
(0.013093996 0.00021746706 0)
(0.012926466 0.00022134737 0)
(0.012756025 0.00022351201 0)
(0.01258388 0.00022417272 0)
(0.012411101 0.00022352175 0)
(0.01223863 0.00022173327 0)
(0.012067297 0.00021896465 0)
(0.011897822 0.00021535771 0)
(0.01173083 0.00021103998 0)
(0.011566859 0.00020612584 0)
(0.011406366 0.00020071764 0)
(0.011249735 0.00019490674 0)
(0.011097285 0.00018877449 0)
(0.010949277 0.00018239311 0)
(0.010805918 0.0001758266 0)
(0.010667369 0.00016913146 0)
(0.010533749 0.00016235742 0)
(0.010405137 0.00015554812 0)
(0.01028158 0.00014874172 0)
(0.010163098 0.00014197142 0)
(0.010049682 0.00013526597 0)
(0.0099413002 0.00012865015 0)
(0.0098379035 0.00012214517 0)
(0.0097394238 0.00011576903 0)
(0.0096457787 0.0001095369 0)
(0.009556873 0.00010346137 0)
(0.0094726012 9.755279e-05 0)
(0.0093928484 9.1819464e-05 0)
(0.0093174927 8.6267908e-05 0)
(0.0092464059 8.0903042e-05 0)
(0.0091794554 7.572837e-05 0)
(0.0091165046 7.0746144e-05 0)
(0.0090574147 6.5957514e-05 0)
(0.009002045 6.1362653e-05 0)
(0.0089502539 5.6960884e-05 0)
(0.0089018997 5.2750776e-05 0)
(0.0088568409 4.8730249e-05 0)
(0.0088149372 4.489665e-05 0)
(0.0087760497 4.1246838e-05 0)
(0.0087400412 3.7777248e-05 0)
(0.0087067769 3.4483955e-05 0)
(0.0086761245 3.136273e-05 0)
(0.0086479545 2.8409089e-05 0)
(0.0086221403 2.5618336e-05 0)
(0.0085985588 2.298561e-05 0)
(0.0085770901 2.0505915e-05 0)
(0.0085576179 1.8174158e-05 0)
(0.0085400295 1.5985172e-05 0)
(0.0085242158 1.3933751e-05 0)
(0.0085100717 1.2014668e-05 0)
(0.0084974955 1.0222697e-05 0)
(0.0084863897 8.5526354e-06 0)
(0.0084766603 6.9993175e-06 0)
(0.0084682173 5.5576325e-06 0)
(0.0084609744 4.2225371e-06 0)
(0.0084548489 2.9890676e-06 0)
(0.0084497619 1.8523505e-06 0)
(0.0084456381 8.0761236e-07 0)
(0.0084424058 -1.4980957e-07 0)
(0.0084399966 -1.0244681e-06 0)
(0.0084383457 -1.820795e-06 0)
(0.0084373914 -2.5430941e-06 0)
(0.0084370756 -3.1955354e-06 0)
(0.0084373429 -3.7821611e-06 0)
(0.0084381412 -4.3068779e-06 0)
(0.0084394213 -4.773454e-06 0)
(0.0084411368 -5.1855207e-06 0)
(0.0084432442 -5.5465698e-06 0)
(0.0084457023 -5.8599532e-06 0)
(0.008448473 -6.1288852e-06 0)
(0.00845152 -6.3564432e-06 0)
(0.0084548099 -6.545568e-06 0)
(0.0084583112 -6.6990661e-06 0)
(0.0084619948 -6.8196121e-06 0)
(0.0084658333 -6.9097512e-06 0)
(0.0084698017 -6.9719019e-06 0)
(0.0084738765 -7.0083591e-06 0)
(0.0084780362 -7.0212968e-06 0)
(0.0084822609 -7.0127712e-06 0)
(0.0084865322 -6.9847247e-06 0)
(0.0084908333 -6.9389886e-06 0)
(0.0084951489 -6.8772873e-06 0)
(0.008499465 -6.8012419e-06 0)
(0.0085037688 -6.7123739e-06 0)
(0.0085080488 -6.6121089e-06 0)
(0.0085122945 -6.5017806e-06 0)
(0.0085164966 -6.3826341e-06 0)
(0.0085206466 -6.2558305e-06 0)
(0.0085247372 -6.1224498e-06 0)
(0.0085287618 -5.9834949e-06 0)
(0.0085327145 -5.8398954e-06 0)
(0.0085365904 -5.6925107e-06 0)
(0.0085403851 -5.5421342e-06 0)
(0.0085440949 -5.3894958e-06 0)
(0.0085477168 -5.2352659e-06 0)
(0.0085512482 -5.0800586e-06 0)
(0.0085546872 -4.9244343e-06 0)
(0.0085580321 -4.7689034e-06 0)
(0.008561282 -4.6139287e-06 0)
(0.0085644359 -4.4599286e-06 0)
(0.0085674937 -4.3072796e-06 0)
(0.0085704553 -4.1563192e-06 0)
(0.0085733209 -4.0073479e-06 0)
(0.0085760911 -3.8606324e-06 0)
(0.0085787667 -3.716407e-06 0)
(0.0085813487 -3.5748765e-06 0)
(0.0085838382 -3.4362182e-06 0)
(0.0085862366 -3.3005836e-06 0)
(0.0085885455 -3.1681005e-06 0)
(0.0085907665 -3.038875e-06 0)
(0.0085929013 -2.9129928e-06 0)
(0.0085949518 -2.7905211e-06 0)
(0.00859692 -2.6715104e-06 0)
(0.0085988079 -2.5559952e-06 0)
(0.0086006174 -2.4439961e-06 0)
(0.0086023508 -2.3355206e-06 0)
(0.0086040102 -2.2305648e-06 0)
(0.0086055978 -2.1291139e-06 0)
(0.0086071156 -2.0311438e-06 0)
(0.008608566 -1.9366221e-06 0)
(0.0086099511 -1.8455084e-06 0)
(0.0086112731 -1.757756e-06 0)
(0.0086125342 -1.6733123e-06 0)
(0.0086137364 -1.5921194e-06 0)
(0.008614882 -1.5141153e-06 0)
(0.0086159729 -1.4392342e-06 0)
(0.0086170114 -1.3674069e-06 0)
(0.0086179994 -1.2985621e-06 0)
(0.0086189389 -1.2326262e-06 0)
(0.0086198318 -1.1695241e-06 0)
(0.0086206801 -1.1091796e-06 0)
(0.0086214856 -1.0515159e-06 0)
(0.0086222501 -9.9645593e-07 0)
(0.0086229755 -9.4392251e-07 0)
(0.0086236634 -8.9383901e-07 0)
(0.0086243155 -8.4612946e-07 0)
(0.0086249335 -8.007189e-07 0)
(0.008625519 -7.5753369e-07 0)
(0.0086260734 -7.165018e-07 0)
(0.0086265984 -6.7755312e-07 0)
(0.0086270953 -6.4061978e-07 0)
(0.0086275656 -6.0563659e-07 0)
(0.0086280106 -5.7254148e-07 0)
(0.0086284316 -5.4127621e-07 0)
(0.00862883 -5.1178722e-07 0)
(0.008629207 -4.8402707e-07 0)
(0.0086295639 -4.5795647e-07 0)
(0.0086299018 -4.3354772e-07 0)
(0.0086302219 -4.1079039e-07 0)
(0.0086305254 -3.8970095e-07 0)
(0.0086308135 -3.7033945e-07 0)
(0.0086310874 -3.528385e-07 0)
(0.0086313484 -3.3745285e-07 0)
(0.0086315979 -3.2464239e-07 0)
(0.0086318373 -3.1520493e-07 0)
(0.0086320686 -3.1046547e-07 0)
(0.008632293 -3.1244263e-07 0)
(0.008632512 -3.2380244e-07 0)
(0.0086327361 -3.473296e-07 0)
(0.0086329913 -3.8329414e-07 0)
(-0.00046615932 0.003301684 0)
(-0.0019182631 0.0043066187 0)
(-0.0022191594 0.002995527 0)
(-0.0016884375 0.0011917981 0)
(-0.00062089925 -0.00045747143 0)
(0.00075376021 -0.0017476739 0)
(0.002274273 -0.0026476469 0)
(0.0038385421 -0.0032076532 0)
(0.0053856632 -0.0035004429 0)
(0.0068806117 -0.0035953262 0)
(0.0083031479 -0.0035502361 0)
(0.0096416148 -0.0034104896 0)
(0.010889603 -0.0032101091 0)
(0.012043954 -0.0029738717 0)
(0.013103642 -0.0027193953 0)
(0.014069146 -0.0024589476 0)
(0.014942041 -0.0022008798 0)
(0.015724739 -0.0019507251 0)
(0.01642029 -0.0017120178 0)
(0.017032233 -0.0014868914 0)
(0.017564479 -0.0012765081 0)
(0.018021209 -0.0010813628 0)
(0.018406787 -0.000901497 0)
(0.018725693 -0.00073664627 0)
(0.018982455 -0.00058634285 0)
(0.019181596 -0.00044998629 0)
(0.019327594 -0.00032689263 0)
(0.019424839 -0.00021632905 0)
(0.019477602 -0.00011753901 0)
(0.019490016 -2.976177e-05 0)
(0.019466053 4.7757551e-05 0)
(0.019409495 0.00011577249 0)
(0.019323931 0.00017502013 0)
(0.019212748 0.00022621162 0)
(0.019079127 0.00027002741 0)
(0.018926044 0.0003071145 0)
(0.018756265 0.00033808486 0)
(0.018572356 0.0003635145 0)
(0.018376683 0.00038394325 0)
(0.018171418 0.00039987494 0)
(0.01795855 0.00041177801 0)
(0.017739887 0.00042008642 0)
(0.017517072 0.00042520085 0)
(0.017291586 0.00042749002 0)
(0.017064759 0.00042729217 0)
(0.016837783 0.00042491673 0)
(0.016611714 0.00042064592 0)
(0.016387489 0.00041473646 0)
(0.016165931 0.00040742123 0)
(0.015947755 0.00039891096 0)
(0.015733583 0.00038939585 0)
(0.015523948 0.00037904709 0)
(0.0153193 0.00036801838 0)
(0.015120016 0.00035644738 0)
(0.014926407 0.00034445701 0)
(0.014738722 0.00033215671 0)
(0.014557154 0.00031964366 0)
(0.014381848 0.00030700384 0)
(0.014212905 0.00029431308 0)
(0.014050384 0.00028163796 0)
(0.013894311 0.00026903673 0)
(0.013744679 0.00025656007 0)
(0.013601454 0.00024425186 0)
(0.013464576 0.00023214979 0)
(0.013333967 0.00022028606 0)
(0.013209526 0.00020868785 0)
(0.01309114 0.0001973779 0)
(0.012978681 0.00018637491 0)
(0.012872008 0.00017569404 0)
(0.012770972 0.0001653472 0)
(0.012675416 0.00015534346 0)
(0.012585176 0.00014568935 0)
(0.012500084 0.00013638913 0)
(0.012419967 0.00012744504 0)
(0.01234465 0.00011885756 0)
(0.012273958 0.0001106256 0)
(0.012207713 0.00010274668 0)
(0.012145738 9.5217138e-05 0)
(0.012087858 8.8032234e-05 0)
(0.012033898 8.1186324e-05 0)
(0.011983686 7.4672975e-05 0)
(0.011937052 6.848508e-05 0)
(0.011893829 6.2614958e-05 0)
(0.011853854 5.7054448e-05 0)
(0.011816967 5.1794995e-05 0)
(0.011783012 4.6827722e-05 0)
(0.011751837 4.21435e-05 0)
(0.011723294 3.7733007e-05 0)
(0.01169724 3.3586789e-05 0)
(0.011673538 2.9695303e-05 0)
(0.011652051 2.6048966e-05 0)
(0.011632652 2.2638196e-05 0)
(0.011615215 1.9453446e-05 0)
(0.011599621 1.6485235e-05 0)
(0.011585755 1.3724182e-05 0)
(0.011573505 1.1161026e-05 0)
(0.011562766 8.7866525e-06 0)
(0.011553437 6.592111e-06 0)
(0.011545421 4.5686343e-06 0)
(0.011538624 2.7076516e-06 0)
(0.011532961 1.0008055e-06 0)
(0.011528345 -5.6003988e-07 0)
(0.011524699 -1.9827944e-06 0)
(0.011521946 -3.27513e-06 0)
(0.011520015 -4.4444679e-06 0)
(0.011518838 -5.4979814e-06 0)
(0.01151835 -6.4425986e-06 0)
(0.011518492 -7.2849935e-06 0)
(0.011519206 -8.0315833e-06 0)
(0.011520439 -8.6885335e-06 0)
(0.01152214 -9.2617562e-06 0)
(0.011524261 -9.7569111e-06 0)
(0.011526759 -1.0179409e-05 0)
(0.011529591 -1.0534417e-05 0)
(0.011532719 -1.0826861e-05 0)
(0.011536106 -1.106143e-05 0)
(0.01153972 -1.1242582e-05 0)
(0.011543527 -1.1374552e-05 0)
(0.0115475 -1.1461349e-05 0)
(0.01155161 -1.1506773e-05 0)
(0.011555834 -1.1514412e-05 0)
(0.011560148 -1.1487655e-05 0)
(0.011564531 -1.1429693e-05 0)
(0.011568963 -1.1343531e-05 0)
(0.011573427 -1.1231993e-05 0)
(0.011577906 -1.1097726e-05 0)
(0.011582386 -1.094321e-05 0)
(0.011586852 -1.0770766e-05 0)
(0.011591294 -1.0582559e-05 0)
(0.011595699 -1.0380607e-05 0)
(0.011600058 -1.0166787e-05 0)
(0.011604362 -9.9428438e-06 0)
(0.011608604 -9.7103918e-06 0)
(0.011612776 -9.4709258e-06 0)
(0.011616873 -9.2258246e-06 0)
(0.011620889 -8.976358e-06 0)
(0.01162482 -8.7236924e-06 0)
(0.011628661 -8.4688964e-06 0)
(0.011632411 -8.2129462e-06 0)
(0.011636066 -7.9567314e-06 0)
(0.011639623 -7.7010594e-06 0)
(0.011643083 -7.4466607e-06 0)
(0.011646442 -7.194194e-06 0)
(0.011649702 -6.9442499e-06 0)
(0.011652861 -6.697356e-06 0)
(0.01165592 -6.4539809e-06 0)
(0.011658878 -6.2145381e-06 0)
(0.011661737 -5.9793897e-06 0)
(0.011664497 -5.7488503e-06 0)
(0.01166716 -5.5231905e-06 0)
(0.011669726 -5.3026399e-06 0)
(0.011672198 -5.0873903e-06 0)
(0.011674576 -4.8775989e-06 0)
(0.011676863 -4.6733908e-06 0)
(0.01167906 -4.4748618e-06 0)
(0.01168117 -4.2820806e-06 0)
(0.011683194 -4.0950918e-06 0)
(0.011685134 -3.9139174e-06 0)
(0.011686994 -3.7385593e-06 0)
(0.011688774 -3.5690012e-06 0)
(0.011690478 -3.4052101e-06 0)
(0.011692107 -3.2471387e-06 0)
(0.011693664 -3.0947263e-06 0)
(0.011695152 -2.9479008e-06 0)
(0.011696571 -2.80658e-06 0)
(0.011697926 -2.6706726e-06 0)
(0.011699217 -2.5400799e-06 0)
(0.011700448 -2.4146965e-06 0)
(0.01170162 -2.2944116e-06 0)
(0.011702736 -2.1791101e-06 0)
(0.011703798 -2.0686732e-06 0)
(0.011704807 -1.9629794e-06 0)
(0.011705767 -1.8619052e-06 0)
(0.011706679 -1.765326e-06 0)
(0.011707545 -1.6731166e-06 0)
(0.011708367 -1.585152e-06 0)
(0.011709147 -1.5013079e-06 0)
(0.011709887 -1.4214613e-06 0)
(0.011710588 -1.3454912e-06 0)
(0.011711253 -1.2732791e-06 0)
(0.011711883 -1.2047098e-06 0)
(0.01171248 -1.1396719e-06 0)
(0.011713046 -1.0780588e-06 0)
(0.011713581 -1.0197701e-06 0)
(0.011714088 -9.6471259e-07 0)
(0.011714569 -9.1280287e-07 0)
(0.011715023 -8.6397036e-07 0)
(0.011715454 -8.1816229e-07 0)
(0.011715863 -7.7535152e-07 0)
(0.01171625 -7.3554901e-07 0)
(0.011716618 -6.9882407e-07 0)
(0.011716967 -6.6533695e-07 0)
(0.0117173 -6.3539024e-07 0)
(0.011717617 -6.095066e-07 0)
(0.01171792 -5.8853783e-07 0)
(0.01171821 -5.7379479e-07 0)
(0.011718488 -5.6709773e-07 0)
(0.011718754 -5.7049493e-07 0)
(0.011719016 -5.8527104e-07 0)
(0.011719312 -6.1195066e-07 0)
(-0.0005135079 0.0048273227 0)
(-0.00084857704 0.0047784835 0)
(0.00082564944 0.0022012402 0)
(0.0031293517 -0.00024867199 0)
(0.0054407857 -0.0021787547 0)
(0.0075767836 -0.003545626 0)
(0.0094956417 -0.0044107654 0)
(0.011203796 -0.004884735 0)
(0.012729846 -0.0050735664 0)
(0.014104965 -0.005061177 0)
(0.015354082 -0.0049108691 0)
(0.016495198 -0.0046694585 0)
(0.017540741 -0.0043709594 0)
(0.018499004 -0.0040397429 0)
(0.019375457 -0.0036930782 0)
(0.020173802 -0.0033430592 0)
(0.020896739 -0.002998034 0)
(0.021546477 -0.0026636583 0)
(0.022125069 -0.0023436644 0)
(0.022634621 -0.0020404164 0)
(0.023077399 -0.0017553081 0)
(0.023455883 -0.0014890455 0)
(0.023772775 -0.0012418465 0)
(0.024030983 -0.0010135816 0)
(0.024233593 -0.00080387382 0)
(0.024383829 -0.00061216954 0)
(0.024485012 -0.00043779038 0)
(0.024540524 -0.00027997194 0)
(0.024553768 -0.00013789432 0)
(0.02452814 -1.0707043e-05 0)
(0.02446699 0.00010247021 0)
(0.024373581 0.00020253778 0)
(0.024251085 0.00029038977 0)
(0.024102566 0.0003669049 0)
(0.023930962 0.00043294001 0)
(0.023739076 0.00048932442 0)
(0.023529565 0.00053685541 0)
(0.023304936 0.0005762949 0)
(0.023067541 0.00060836708 0)
(0.022819576 0.00063375688 0)
(0.022563082 0.00065310913 0)
(0.022299946 0.00066702832 0)
(0.022031907 0.00067607886 0)
(0.021760555 0.00068078579 0)
(0.021487342 0.00068163582 0)
(0.021213583 0.00067907859 0)
(0.020940467 0.00067352822 0)
(0.020669059 0.00066536495 0)
(0.020400307 0.00065493686 0)
(0.020135056 0.00064256174 0)
(0.019874043 0.00062852887 0)
(0.019617916 0.00061310088 0)
(0.019367231 0.00059651556 0)
(0.019122466 0.00057898758 0)
(0.01888402 0.00056071024 0)
(0.018652226 0.00054185706 0)
(0.018427352 0.00052258332 0)
(0.01820961 0.00050302758 0)
(0.017999159 0.00048331302 0)
(0.017796109 0.00046354877 0)
(0.017600529 0.00044383109 0)
(0.017412447 0.00042424453 0)
(0.01723186 0.00040486298 0)
(0.017058731 0.00038575062 0)
(0.016892997 0.00036696286 0)
(0.016734572 0.00034854712 0)
(0.016583347 0.00033054364 0)
(0.016439195 0.00031298614 0)
(0.016301975 0.0002959025 0)
(0.016171531 0.00027931532 0)
(0.016047695 0.00026324245 0)
(0.015930291 0.00024769753 0)
(0.015819136 0.00023269037 0)
(0.015714038 0.00021822742 0)
(0.015614803 0.00020431209 0)
(0.015521232 0.00019094512 0)
(0.015433126 0.00017812488 0)
(0.015350282 0.00016584764 0)
(0.015272499 0.00015410784 0)
(0.015199575 0.00014289829 0)
(0.015131311 0.00013221043 0)
(0.015067509 0.00012203445 0)
(0.015007973 0.00011235954 0)
(0.014952512 0.00010317399 0)
(0.014900938 9.4465333e-05 0)
(0.014853065 8.6220512e-05 0)
(0.014808713 7.842596e-05 0)
(0.014767707 7.106772e-05 0)
(0.014729875 6.4131536e-05 0)
(0.014695052 5.7602941e-05 0)
(0.014663075 5.1467331e-05 0)
(0.01463379 4.5710038e-05 0)
(0.014607046 4.0316391e-05 0)
(0.014582696 3.5271771e-05 0)
(0.014560602 3.0561663e-05 0)
(0.014540628 2.6171698e-05 0)
(0.014522646 2.2087697e-05 0)
(0.01450653 1.82957e-05 0)
(0.014492162 1.4782004e-05 0)
(0.014479427 1.1533182e-05 0)
(0.014468218 8.536111e-06 0)
(0.014458431 5.777991e-06 0)
(0.014449966 3.24636e-06 0)
(0.01444273 9.2911517e-07 0)
(0.014436632 -1.1854851e-06 0)
(0.014431588 -3.1088133e-06 0)
(0.014427517 -4.8518609e-06 0)
(0.014424343 -6.4252256e-06 0)
(0.014421994 -7.8391228e-06 0)
(0.014420401 -9.1033865e-06 0)
(0.014419499 -1.0227462e-05 0)
(0.014419229 -1.1220406e-05 0)
(0.014419532 -1.2090891e-05 0)
(0.014420356 -1.2847214e-05 0)
(0.01442165 -1.3497297e-05 0)
(0.014423366 -1.4048696e-05 0)
(0.01442546 -1.450861e-05 0)
(0.014427891 -1.4883883e-05 0)
(0.01443062 -1.5181016e-05 0)
(0.014433612 -1.5406175e-05 0)
(0.014436832 -1.55652e-05 0)
(0.01444025 -1.5663615e-05 0)
(0.014443836 -1.5706638e-05 0)
(0.014447565 -1.569919e-05 0)
(0.014451411 -1.5645906e-05 0)
(0.014455352 -1.5551147e-05 0)
(0.014459367 -1.5419006e-05 0)
(0.014463436 -1.5253324e-05 0)
(0.014467543 -1.5057695e-05 0)
(0.01447167 -1.4835481e-05 0)
(0.014475804 -1.4589819e-05 0)
(0.014479931 -1.4323631e-05 0)
(0.014484039 -1.4039638e-05 0)
(0.014488118 -1.3740364e-05 0)
(0.014492157 -1.3428149e-05 0)
(0.014496148 -1.3105157e-05 0)
(0.014500083 -1.2773386e-05 0)
(0.014503956 -1.2434677e-05 0)
(0.014507761 -1.209072e-05 0)