# Solver information
# Time          	U_solver        	Ux_initial      	Ux_final        	Ux_iters        	Uy_initial      	Uy_final        	Uy_iters        	U_converged     	p_solver        	p_initial       	p_final         	p_iters         	p_converged     
1               	smoothSolver	1.00000000e+00	8.35586360e-03	4	9.99999980e-01	8.67827280e-03	4	false	GAMG	1.00000000e+00	2.65821260e-03	6	true
2               	smoothSolver	7.95210120e-01	6.88232670e-03	7	2.38863220e-01	1.73339670e-03	7	false	GAMG	2.15262880e-03	5.13081300e-06	6	true
3               	smoothSolver	1.09851930e-01	6.09263330e-04	7	2.97824380e-02	2.36129390e-04	6	false	GAMG	2.19989480e-02	1.57660390e-04	4	true
4               	smoothSolver	6.17435000e-02	3.47342710e-04	7	2.55890240e-02	2.11042070e-04	6	false	GAMG	1.59346390e-02	1.03962230e-04	3	true
5               	smoothSolver	4.47254690e-02	2.73481460e-04	7	2.17631190e-02	1.97690490e-04	6	false	GAMG	9.61689730e-03	7.84572140e-05	3	true
6               	smoothSolver	3.50146940e-02	2.28081020e-04	7	1.87152470e-02	8.90209150e-05	7	false	GAMG	6.81938530e-03	5.58123360e-05	3	true
7               	smoothSolver	2.89650210e-02	1.96630540e-04	7	1.68454080e-02	8.70871120e-05	7	false	GAMG	4.94942970e-03	4.37071150e-05	3	true
8               	smoothSolver	2.47812210e-02	1.73563860e-04	7	1.54680880e-02	8.56334480e-05	7	false	GAMG	3.67312920e-03	1.96100970e-05	4	true
9               	smoothSolver	2.16273970e-02	1.55612640e-04	7	1.44945540e-02	8.42954890e-05	7	false	GAMG	3.00022380e-03	1.80338570e-05	4	true
10              	smoothSolver	1.93128360e-02	1.41256930e-04	7	1.36186780e-02	8.26297880e-05	7	false	GAMG	2.59146000e-03	1.54063980e-05	4	true
11              	smoothSolver	1.73935360e-02	1.29005780e-04	7	1.29426360e-02	8.13368440e-05	7	false	GAMG	2.33009380e-03	1.26029130e-05	4	true
12              	smoothSolver	1.57841980e-02	1.18888330e-04	7	1.23114500e-02	7.98432700e-05	7	false	GAMG	2.12999120e-03	1.04927490e-05	4	true
13              	smoothSolver	1.44691370e-02	1.10120730e-04	7	1.17845390e-02	7.83392260e-05	7	false	GAMG	1.94632280e-03	9.06859990e-06	4	true
14              	smoothSolver	1.33803900e-02	1.02686340e-04	7	1.13197100e-02	7.70518270e-05	7	false	GAMG	1.78552960e-03	8.11370930e-06	4	true
15              	smoothSolver	1.24284160e-02	9.61417930e-05	7	1.08723670e-02	7.56372310e-05	7	false	GAMG	1.65201580e-03	7.41488780e-06	4	true
16              	smoothSolver	1.15878240e-02	9.03679940e-05	7	1.05146110e-02	7.42736630e-05	7	false	GAMG	1.53402800e-03	6.87117320e-06	4	true
17              	smoothSolver	1.08353680e-02	8.52373080e-05	7	1.01633550e-02	7.30115680e-05	7	false	GAMG	1.42517910e-03	6.41027860e-06	4	true
18              	smoothSolver	1.01974750e-02	8.05078960e-05	7	9.83816780e-03	7.16993300e-05	7	false	GAMG	1.33681270e-03	5.97735100e-06	4	true
19              	smoothSolver	9.62029070e-03	7.62755940e-05	7	9.55995210e-03	7.04320010e-05	7	false	GAMG	1.25831520e-03	5.58108220e-06	4	true
20              	smoothSolver	9.09581760e-03	7.24550630e-05	7	9.28179890e-03	6.92048600e-05	7	false	GAMG	1.18372220e-03	5.21697770e-06	4	true
21              	smoothSolver	8.61730350e-03	6.89505410e-05	7	9.02780940e-03	6.79972200e-05	7	false	GAMG	1.11562260e-03	4.88653270e-06	4	true
22              	smoothSolver	8.17928940e-03	6.57467180e-05	7	8.79812760e-03	6.68080330e-05	7	false	GAMG	1.05447970e-03	4.60245390e-06	4	true
23              	smoothSolver	7.78943950e-03	6.28493100e-05	7	8.57108240e-03	6.56236390e-05	7	false	GAMG	9.98893930e-04	4.33947940e-06	4	true
24              	smoothSolver	7.44145820e-03	6.01552870e-05	7	8.36401010e-03	6.45099800e-05	7	false	GAMG	9.48160720e-04	4.09494130e-06	4	true
25              	smoothSolver	7.11832690e-03	5.76419900e-05	7	8.17101060e-03	6.34219910e-05	7	false	GAMG	9.00193510e-04	3.87460830e-06	4	true
26              	smoothSolver	6.81708880e-03	5.53350620e-05	7	7.98080410e-03	6.23049800e-05	7	false	GAMG	8.55902490e-04	3.66745500e-06	4	true
27              	smoothSolver	6.53569130e-03	5.31897130e-05	7	7.80342520e-03	6.12509830e-05	7	false	GAMG	8.16622910e-04	3.47726740e-06	4	true
28              	smoothSolver	6.26954320e-03	5.11532170e-05	7	7.63545440e-03	6.02501420e-05	7	false	GAMG	7.80978860e-04	3.31349610e-06	4	true
29              	smoothSolver	6.01740920e-03	4.92149320e-05	7	7.47197530e-03	5.92093140e-05	7	false	GAMG	7.46415680e-04	3.15812150e-06	4	true
30              	smoothSolver	5.78234760e-03	4.73881680e-05	7	7.31747660e-03	5.82058060e-05	7	false	GAMG	7.13573890e-04	3.01868410e-06	4	true
31              	smoothSolver	5.57099880e-03	4.56985070e-05	7	7.17014350e-03	5.72935350e-05	7	false	GAMG	6.84442620e-04	2.88907870e-06	4	true
32              	smoothSolver	5.37138000e-03	4.41018280e-05	7	7.02690340e-03	5.63390350e-05	7	false	GAMG	6.57140150e-04	2.76980840e-06	4	true
33              	smoothSolver	5.18231480e-03	4.25870430e-05	7	6.88980440e-03	5.53805990e-05	7	false	GAMG	6.30373480e-04	2.66064770e-06	4	true
34              	smoothSolver	5.00304820e-03	4.11481380e-05	7	6.75849920e-03	5.45088330e-05	7	false	GAMG	6.04970080e-04	2.56244810e-06	4	true
35              	smoothSolver	4.83280210e-03	3.97795510e-05	7	6.63079990e-03	5.36305050e-05	7	false	GAMG	5.81702660e-04	2.46962000e-06	4	true
36              	smoothSolver	4.67089790e-03	3.84888610e-05	7	6.50767540e-03	5.27432470e-05	7	false	GAMG	5.60051130e-04	2.38393540e-06	4	true
37              	smoothSolver	4.51682440e-03	3.72711220e-05	7	6.39044100e-03	5.18987680e-05	7	false	GAMG	5.39012140e-04	2.29931790e-06	4	true
38              	smoothSolver	4.37012630e-03	3.61086090e-05	7	6.27626150e-03	5.11047660e-05	7	false	GAMG	5.19277310e-04	2.22044760e-06	4	true
39              	smoothSolver	4.23032680e-03	3.49976380e-05	7	6.16592670e-03	5.02933140e-05	7	false	GAMG	5.00474820e-04	2.14359550e-06	4	true
40              	smoothSolver	4.09678660e-03	3.39355740e-05	7	6.06003990e-03	4.94806500e-05	7	false	GAMG	4.82943700e-04	2.06800360e-06	4	true
41              	smoothSolver	3.96952760e-03	3.29203720e-05	7	5.95697650e-03	4.87389890e-05	7	false	GAMG	4.66643030e-04	1.99580070e-06	4	true
42              	smoothSolver	3.85182520e-03	3.19478220e-05	7	5.85680360e-03	4.80043550e-05	7	false	GAMG	4.51201500e-04	1.92532990e-06	4	true
43              	smoothSolver	3.73918830e-03	3.10153650e-05	7	5.76047340e-03	4.72517450e-05	7	false	GAMG	4.36194000e-04	1.85554300e-06	4	true
44              	smoothSolver	3.63109640e-03	3.01254880e-05	7	5.66716180e-03	4.65156570e-05	7	false	GAMG	4.21972580e-04	1.78687750e-06	4	true
45              	smoothSolver	3.52735930e-03	2.92785220e-05	7	5.57605150e-03	4.58552580e-05	7	false	GAMG	4.08721180e-04	1.71578250e-06	4	true
46              	smoothSolver	3.42718440e-03	2.84602920e-05	7	5.48770550e-03	4.51786230e-05	7	false	GAMG	3.96425280e-04	1.64458120e-06	4	true
47              	smoothSolver	3.33008410e-03	2.76663170e-05	7	5.40173380e-03	4.44856610e-05	7	false	GAMG	3.84725820e-04	1.57497200e-06	4	true
48              	smoothSolver	3.23635150e-03	2.68989910e-05	7	5.31822000e-03	4.38213200e-05	7	false	GAMG	3.73353840e-04	1.50508040e-06	4	true
49              	smoothSolver	3.14608930e-03	2.61596720e-05	7	5.23736580e-03	4.32174100e-05	7	false	GAMG	3.62469650e-04	1.43496380e-06	4	true
50              	smoothSolver	3.05915920e-03	2.54471230e-05	7	5.15896040e-03	4.26053610e-05	7	false	GAMG	3.52390560e-04	1.36512180e-06	4	true
51              	smoothSolver	2.97544660e-03	2.47604410e-05	7	5.08154560e-03	4.19773220e-05	7	false	GAMG	3.42936530e-04	1.29681480e-06	4	true
52              	smoothSolver	2.89478930e-03	2.40985780e-05	7	5.00651910e-03	4.13815870e-05	7	false	GAMG	3.33794930e-04	1.22929020e-06	4	true
53              	smoothSolver	2.81705810e-03	2.34598570e-05	7	4.93442100e-03	4.08294060e-05	7	false	GAMG	3.25006060e-04	1.16222700e-06	4	true
54              	smoothSolver	2.74206140e-03	2.28446380e-05	7	4.86401530e-03	4.02697830e-05	7	false	GAMG	3.16638140e-04	1.09673040e-06	4	true
55              	smoothSolver	2.66967510e-03	2.22531000e-05	7	4.79363260e-03	3.96982420e-05	7	false	GAMG	3.08728650e-04	1.03425520e-06	4	true
56              	smoothSolver	2.59972390e-03	2.16847670e-05	7	4.72552020e-03	3.91576630e-05	7	false	GAMG	3.01268210e-04	9.75093280e-07	4	true
57              	smoothSolver	2.53216890e-03	2.11354890e-05	7	4.66083210e-03	3.86506090e-05	7	false	GAMG	2.94028730e-04	9.17528600e-07	4	true
58              	smoothSolver	2.46691260e-03	2.06041560e-05	7	4.59721400e-03	3.81401740e-05	7	false	GAMG	2.86879730e-04	8.63945900e-07	4	true
59              	smoothSolver	2.40380560e-03	2.00901540e-05	7	4.53305280e-03	3.76178190e-05	7	false	GAMG	2.80008270e-04	8.13655060e-07	4	true
60              	smoothSolver	2.34275500e-03	1.95929480e-05	7	4.47074700e-03	3.71214540e-05	7	false	GAMG	2.73648980e-04	7.66014290e-07	4	true
61              	smoothSolver	2.28373410e-03	1.91114630e-05	7	4.41185330e-03	3.66499700e-05	7	false	GAMG	2.67547380e-04	7.22575530e-07	4	true
62              	smoothSolver	2.22667920e-03	1.86449260e-05	7	4.35357940e-03	3.61762850e-05	7	false	GAMG	2.61562210e-04	6.83394140e-07	4	true
63              	smoothSolver	2.17160090e-03	1.81931460e-05	7	4.29529960e-03	3.56980190e-05	7	false	GAMG	2.55928610e-04	6.48277810e-07	4	true
64              	smoothSolver	2.11875960e-03	1.77554760e-05	7	4.23795040e-03	3.52388290e-05	7	false	GAMG	2.50442780e-04	6.17163440e-07	4	true
65              	smoothSolver	2.06776480e-03	1.73311650e-05	7	4.18414060e-03	3.48011420e-05	7	false	GAMG	2.44991270e-04	5.90033470e-07	4	true
66              	smoothSolver	2.01830910e-03	1.69195720e-05	7	4.13104910e-03	3.43633090e-05	7	false	GAMG	2.39866760e-04	5.66659290e-07	4	true
67              	smoothSolver	1.97032100e-03	1.65203830e-05	7	4.07744910e-03	3.39201570e-05	7	false	GAMG	2.35116480e-04	5.46944660e-07	4	true
68              	smoothSolver	1.92380570e-03	1.61330440e-05	7	4.02388120e-03	3.34889970e-05	7	false	GAMG	2.30499280e-04	5.30761020e-07	4	true
69              	smoothSolver	1.87866740e-03	1.57569990e-05	7	3.97402440e-03	3.30738750e-05	7	false	GAMG	2.25903900e-04	5.17668600e-07	4	true
70              	smoothSolver	1.83485930e-03	1.53921220e-05	7	3.92463400e-03	3.26606210e-05	7	false	GAMG	2.21510450e-04	5.07447030e-07	4	true
71              	smoothSolver	1.79230210e-03	1.50376840e-05	7	3.87476720e-03	3.22430260e-05	7	false	GAMG	2.17332430e-04	4.99412900e-07	4	true
72              	smoothSolver	1.75095610e-03	1.46933430e-05	7	3.82454010e-03	3.18312610e-05	7	false	GAMG	2.13309010e-04	4.93682700e-07	4	true
73              	smoothSolver	1.71083880e-03	1.43590270e-05	7	3.77765140e-03	3.14367640e-05	7	false	GAMG	2.09405040e-04	4.89451330e-07	4	true
74              	smoothSolver	1.67184660e-03	1.40341770e-05	7	3.73142220e-03	3.10450360e-05	7	false	GAMG	2.05678790e-04	4.86352180e-07	4	true
75              	smoothSolver	1.63395170e-03	1.37183060e-05	7	3.68479140e-03	3.06496870e-05	7	false	GAMG	2.02065610e-04	4.83826860e-07	4	true
76              	smoothSolver	1.59713370e-03	1.34111710e-05	7	3.63773210e-03	3.02561810e-05	7	false	GAMG	1.98518570e-04	4.81698820e-07	4	true
77              	smoothSolver	1.56135580e-03	1.31127800e-05	7	3.59297290e-03	2.98802800e-05	7	false	GAMG	1.95119780e-04	4.79700850e-07	4	true
78              	smoothSolver	1.52655560e-03	1.28232330e-05	7	3.54953880e-03	2.95087700e-05	7	false	GAMG	1.91779170e-04	4.77671620e-07	4	true
79              	smoothSolver	1.49272080e-03	1.25416110e-05	7	3.50591270e-03	2.91368530e-05	7	false	GAMG	1.88453590e-04	4.75283710e-07	4	true
80              	smoothSolver	1.45979480e-03	1.22677080e-05	7	3.46201810e-03	2.87632400e-05	7	false	GAMG	1.85272260e-04	4.72578560e-07	4	true
81              	smoothSolver	1.42780070e-03	1.20013360e-05	7	3.41912190e-03	2.84063930e-05	7	false	GAMG	1.82232070e-04	4.69375850e-07	4	true
82              	smoothSolver	1.39665920e-03	1.17419100e-05	7	3.37829820e-03	2.80564510e-05	7	false	GAMG	1.79315050e-04	4.65729710e-07	4	true
83              	smoothSolver	1.36629660e-03	1.14889440e-05	7	3.33735290e-03	2.77068610e-05	7	false	GAMG	1.76421930e-04	4.61721850e-07	4	true
84              	smoothSolver	1.33671030e-03	1.12420650e-05	7	3.29632420e-03	2.73582110e-05	7	false	GAMG	1.73577980e-04	4.57514510e-07	4	true
85              	smoothSolver	1.30784480e-03	1.10010820e-05	7	3.25546670e-03	2.70168730e-05	7	false	GAMG	1.70747530e-04	4.52900900e-07	4	true
86              	smoothSolver	1.27972240e-03	1.07661590e-05	7	3.21686830e-03	2.66877730e-05	7	false	GAMG	1.67973560e-04	4.48017160e-07	4	true
87              	smoothSolver	1.25231630e-03	1.05373990e-05	7	3.17858950e-03	2.63624000e-05	7	false	GAMG	1.65306920e-04	4.42666040e-07	4	true
88              	smoothSolver	1.22562260e-03	1.03144830e-05	7	3.14024930e-03	2.60370500e-05	7	false	GAMG	1.62745480e-04	4.36964400e-07	4	true
89              	smoothSolver	1.19963920e-03	1.00974160e-05	7	3.10166760e-03	2.57134980e-05	7	false	GAMG	1.60185960e-04	4.31266930e-07	4	true
90              	smoothSolver	1.17431760e-03	9.88573740e-06	7	3.06472010e-03	2.54036290e-05	7	false	GAMG	1.57630290e-04	4.25514980e-07	4	true
91              	smoothSolver	1.14964200e-03	9.67942360e-06	7	3.02856330e-03	2.50992340e-05	7	false	GAMG	1.55105160e-04	4.19490150e-07	4	true
92              	smoothSolver	1.12561100e-03	9.47846900e-06	7	2.99247090e-03	2.47961630e-05	7	false	GAMG	1.52632390e-04	4.13444940e-07	4	true
93              	smoothSolver	1.10219090e-03	9.28250210e-06	7	2.95626290e-03	2.44909090e-05	7	false	GAMG	1.50289020e-04	4.07430240e-07	4	true
94              	smoothSolver	1.07935840e-03	9.09138060e-06	7	2.92062830e-03	2.41937150e-05	7	false	GAMG	1.47973650e-04	4.01296320e-07	4	true
95              	smoothSolver	1.05710940e-03	8.90493920e-06	7	2.88674740e-03	2.39074370e-05	7	false	GAMG	1.45666560e-04	3.95324510e-07	4	true
96              	smoothSolver	1.03542290e-03	8.72328450e-06	7	2.85291320e-03	2.36239270e-05	7	false	GAMG	1.43398980e-04	3.89531110e-07	4	true
97              	smoothSolver	1.01427260e-03	8.54597380e-06	7	2.81897490e-03	2.33411920e-05	7	false	GAMG	1.41137490e-04	3.83607900e-07	4	true
98              	smoothSolver	9.93663400e-04	8.37291770e-06	7	2.78483950e-03	2.30576540e-05	7	false	GAMG	1.38913340e-04	3.77593660e-07	4	true
99              	smoothSolver	9.73547000e-04	8.20410050e-06	7	2.75227420e-03	2.27856720e-05	7	false	GAMG	1.36794410e-04	3.71709280e-07	4	true
100             	smoothSolver	9.53914900e-04	8.03937380e-06	7	2.72042800e-03	2.25182210e-05	7	false	GAMG	1.34703020e-04	3.66043540e-07	4	true
101             	smoothSolver	9.34771900e-04	7.87861330e-06	7	2.68855760e-03	2.22532310e-05	7	false	GAMG	1.32615320e-04	3.60270510e-07	4	true
102             	smoothSolver	9.16096480e-04	7.72167280e-06	7	2.65668070e-03	2.19884380e-05	7	false	GAMG	1.30577410e-04	3.54506000e-07	4	true
103             	smoothSolver	8.97877640e-04	7.56837980e-06	7	2.62521330e-03	2.17274140e-05	7	false	GAMG	1.28557870e-04	3.48936060e-07	4	true
104             	smoothSolver	8.80066420e-04	7.41874520e-06	7	2.59505880e-03	2.14750390e-05	7	false	GAMG	1.26562460e-04	3.43389120e-07	4	true
105             	smoothSolver	8.62681510e-04	7.27279160e-06	7	2.56500790e-03	2.12256500e-05	7	false	GAMG	1.24597760e-04	3.37951210e-07	4	true
106             	smoothSolver	8.45731040e-04	7.13009000e-06	7	2.53499110e-03	2.09770870e-05	7	false	GAMG	1.22700620e-04	3.32474270e-07	4	true
107             	smoothSolver	8.29176620e-04	6.99075180e-06	7	2.50496290e-03	2.07291030e-05	7	false	GAMG	1.20838490e-04	3.27203360e-07	4	true
108             	smoothSolver	8.12998530e-04	6.85455950e-06	7	2.47615410e-03	2.04890510e-05	7	false	GAMG	1.18967870e-04	3.21877500e-07	4	true
109             	smoothSolver	7.97187850e-04	6.72168460e-06	7	2.44779090e-03	2.02537270e-05	7	false	GAMG	1.17119010e-04	3.16514290e-07	4	true
110             	smoothSolver	7.81754420e-04	6.59180350e-06	7	2.41959500e-03	2.00204100e-05	7	false	GAMG	1.15315710e-04	3.11226400e-07	4	true
111             	smoothSolver	7.66684770e-04	6.46499400e-06	7	2.39136150e-03	1.97872970e-05	7	false	GAMG	1.13555400e-04	3.06007120e-07	4	true
112             	smoothSolver	7.51949130e-04	6.34098320e-06	7	2.36335910e-03	1.95558130e-05	7	false	GAMG	1.11826910e-04	3.00812870e-07	4	true
113             	smoothSolver	7.37553580e-04	6.21988500e-06	7	2.33666200e-03	1.93331420e-05	7	false	GAMG	1.10109890e-04	2.95566860e-07	4	true
114             	smoothSolver	7.23484730e-04	6.10151630e-06	7	2.31003350e-03	1.91137370e-05	7	false	GAMG	1.08435540e-04	2.90281400e-07	4	true
115             	smoothSolver	7.09737950e-04	5.98590980e-06	7	2.28351690e-03	1.88956570e-05	7	false	GAMG	1.06775250e-04	2.85147090e-07	4	true
116             	smoothSolver	6.96298980e-04	5.87281800e-06	7	2.25696840e-03	1.86775970e-05	7	false	GAMG	1.05123480e-04	2.80086730e-07	4	true
117             	smoothSolver	6.83161080e-04	5.76242290e-06	7	2.23105040e-03	1.84616750e-05	7	false	GAMG	1.03497210e-04	2.74974450e-07	4	true
118             	smoothSolver	6.70312540e-04	5.65436550e-06	7	2.20595820e-03	1.82535880e-05	7	false	GAMG	1.01911680e-04	2.69822080e-07	4	true
119             	smoothSolver	6.57768570e-04	5.54869880e-06	7	2.18092060e-03	1.80478090e-05	7	false	GAMG	1.00352890e-04	2.64659080e-07	4	true
120             	smoothSolver	6.45505120e-04	5.44547330e-06	7	2.15597520e-03	1.78431690e-05	7	false	GAMG	9.88144730e-05	2.59545070e-07	4	true
121             	smoothSolver	6.33500360e-04	5.34465750e-06	7	2.13102530e-03	1.76389010e-05	7	false	GAMG	9.72767000e-05	2.54501480e-07	4	true
122             	smoothSolver	6.21755860e-04	5.24595980e-06	7	2.10693560e-03	1.74381740e-05	7	false	GAMG	9.57852970e-05	2.49465850e-07	4	true
123             	smoothSolver	6.10295260e-04	5.14941180e-06	7	2.08336910e-03	1.72433280e-05	7	false	GAMG	9.43234370e-05	2.44420820e-07	4	true
124             	smoothSolver	5.99087770e-04	5.05507630e-06	7	2.05983840e-03	1.70501070e-05	7	false	GAMG	9.28639760e-05	2.39356140e-07	4	true
125             	smoothSolver	5.88114350e-04	4.96280280e-06	7	2.03637310e-03	1.68578140e-05	7	false	GAMG	9.14260340e-05	2.34350980e-07	4	true
126             	smoothSolver	5.77380050e-04	4.87256420e-06	7	2.01302780e-03	1.66658030e-05	7	false	GAMG	9.00287050e-05	2.29408030e-07	4	true
127             	smoothSolver	5.66884600e-04	4.78422880e-06	7	1.99046370e-03	1.64784170e-05	7	false	GAMG	8.86469030e-05	2.24497540e-07	4	true
128             	smoothSolver	5.56624960e-04	4.69779380e-06	7	1.96823250e-03	1.62958210e-05	7	false	GAMG	8.72698140e-05	2.19580160e-07	4	true
129             	smoothSolver	5.46587870e-04	4.61327380e-06	7	1.94608770e-03	1.61141290e-05	7	false	GAMG	8.59085110e-05	2.14646590e-07	4	true
130             	smoothSolver	5.36767050e-04	4.53067660e-06	7	1.92400720e-03	1.59331970e-05	7	false	GAMG	8.45958870e-05	2.09700070e-07	4	true
131             	smoothSolver	5.27155510e-04	4.44987820e-06	7	1.90223970e-03	1.57532470e-05	7	false	GAMG	8.33069470e-05	2.04790080e-07	4	true
132             	smoothSolver	5.17740670e-04	4.37070600e-06	7	1.88107490e-03	1.55780450e-05	7	false	GAMG	8.20103010e-05	1.99906400e-07	4	true
133             	smoothSolver	5.08540890e-04	4.29321700e-06	7	1.86011820e-03	1.54066200e-05	7	false	GAMG	8.07283750e-05	8.01253170e-07	3	true
134             	smoothSolver	4.99537050e-04	4.21740490e-06	7	1.83928360e-03	1.52360660e-05	7	false	GAMG	7.94789010e-05	7.75127930e-07	3	true
135             	smoothSolver	4.90730810e-04	4.14327030e-06	7	1.81851110e-03	1.50657210e-05	7	false	GAMG	7.82638880e-05	7.49330340e-07	3	true
136             	smoothSolver	4.82103600e-04	4.07067380e-06	7	1.79817680e-03	1.48967890e-05	7	false	GAMG	7.70610590e-05	7.23862470e-07	3	true
137             	smoothSolver	4.73660660e-04	3.99955760e-06	7	1.77828370e-03	1.47328720e-05	7	false	GAMG	7.58590690e-05	6.98789180e-07	3	true
138             	smoothSolver	4.65391840e-04	3.92991580e-06	7	1.75855310e-03	1.45716690e-05	7	false	GAMG	7.46842890e-05	6.74163480e-07	3	true
139             	smoothSolver	4.57307380e-04	3.86178790e-06	7	1.73896200e-03	1.44115650e-05	7	false	GAMG	7.35347360e-05	6.49874710e-07	3	true
140             	smoothSolver	4.49387180e-04	3.79509840e-06	7	1.71941890e-03	1.42513710e-05	7	false	GAMG	7.23955310e-05	6.25903120e-07	3	true
141             	smoothSolver	4.41633760e-04	3.72985310e-06	7	1.70037480e-03	1.40925790e-05	7	false	GAMG	7.12697870e-05	6.02376150e-07	3	true
142             	smoothSolver	4.34039960e-04	3.66588210e-06	7	1.68167340e-03	1.39387670e-05	7	false	GAMG	7.01727440e-05	5.79329800e-07	3	true
143             	smoothSolver	4.26597700e-04	3.60332780e-06	7	1.66307900e-03	1.37870850e-05	7	false	GAMG	6.90832800e-05	5.56811960e-07	3	true
144             	smoothSolver	4.19309830e-04	3.54201960e-06	7	1.64466460e-03	1.36365990e-05	7	false	GAMG	6.80183370e-05	5.34746520e-07	3	true
145             	smoothSolver	4.12185150e-04	3.48197130e-06	7	1.62627980e-03	1.34858750e-05	7	false	GAMG	6.69641100e-05	5.13220810e-07	3	true
146             	smoothSolver	4.05208180e-04	3.42313390e-06	7	1.60839940e-03	1.33365830e-05	7	false	GAMG	6.59266460e-05	4.92225750e-07	3	true
147             	smoothSolver	3.98367880e-04	3.36557190e-06	7	1.59080300e-03	1.31919230e-05	7	false	GAMG	6.49113330e-05	4.71773580e-07	3	true
148             	smoothSolver	3.91667460e-04	3.30923430e-06	7	1.57330890e-03	1.30491520e-05	7	false	GAMG	6.39074520e-05	4.51788360e-07	3	true
149             	smoothSolver	3.85103710e-04	3.25401560e-06	7	1.55596830e-03	1.29076300e-05	7	false	GAMG	6.29174280e-05	4.32443310e-07	3	true
150             	smoothSolver	3.78669950e-04	3.19996110e-06	7	1.53867960e-03	1.27660380e-05	7	false	GAMG	6.19538820e-05	4.13755590e-07	3	true
151             	smoothSolver	3.72375760e-04	3.14704440e-06	7	1.52183710e-03	1.26253880e-05	7	false	GAMG	6.10000200e-05	3.95841700e-07	3	true
152             	smoothSolver	3.66212350e-04	3.09520830e-06	7	1.50525200e-03	1.24891170e-05	7	false	GAMG	6.00507720e-05	3.78863050e-07	3	true
153             	smoothSolver	3.60176490e-04	3.04441250e-06	7	1.48879610e-03	1.23547400e-05	7	false	GAMG	5.91108210e-05	3.62882580e-07	3	true
154             	smoothSolver	3.54259960e-04	2.99464250e-06	7	1.47245670e-03	1.22214880e-05	7	false	GAMG	5.82057520e-05	3.47904520e-07	3	true
155             	smoothSolver	3.48461770e-04	2.94592950e-06	7	1.45622550e-03	1.20884170e-05	7	false	GAMG	5.73091530e-05	3.34974200e-07	3	true
156             	smoothSolver	3.42786360e-04	2.89820660e-06	7	1.44036060e-03	1.19560120e-05	7	false	GAMG	5.64279140e-05	3.21062120e-07	3	true
157             	smoothSolver	3.37230290e-04	2.85146920e-06	7	1.42475470e-03	1.18274720e-05	7	false	GAMG	5.55519980e-05	3.08833400e-07	3	true
158             	smoothSolver	3.31787730e-04	2.80565250e-06	7	1.40924500e-03	1.17010750e-05	7	false	GAMG	5.46950860e-05	2.97752070e-07	3	true
159             	smoothSolver	3.26453080e-04	2.76076460e-06	7	1.39384810e-03	1.15754040e-05	7	false	GAMG	5.38577170e-05	2.88795120e-07	3	true
160             	smoothSolver	3.21233280e-04	2.71690910e-06	7	1.37857250e-03	1.14500310e-05	7	false	GAMG	5.30315740e-05	2.82032930e-07	3	true
161             	smoothSolver	3.16128450e-04	2.67396230e-06	7	1.36358600e-03	1.13250430e-05	7	false	GAMG	5.22138640e-05	2.76736190e-07	3	true
162             	smoothSolver	3.11127720e-04	2.63185680e-06	7	1.34887490e-03	1.12036330e-05	7	false	GAMG	5.14152030e-05	2.72363240e-07	3	true
163             	smoothSolver	3.06224030e-04	2.59066590e-06	7	1.33425520e-03	1.10844510e-05	7	false	GAMG	5.06262980e-05	2.68657180e-07	3	true
164             	smoothSolver	3.01416040e-04	2.55028400e-06	7	1.31974530e-03	1.09661280e-05	7	false	GAMG	4.98481510e-05	2.65690280e-07	3	true
165             	smoothSolver	2.96715670e-04	2.51071090e-06	7	1.30540710e-03	1.08482730e-05	7	false	GAMG	4.90834960e-05	2.63650320e-07	3	true
166             	smoothSolver	2.92104590e-04	2.47188130e-06	7	1.29125470e-03	1.07307780e-05	7	false	GAMG	4.83342690e-05	2.62235520e-07	3	true
167             	smoothSolver	2.87578450e-04	2.43387780e-06	7	1.27738470e-03	1.06160990e-05	7	false	GAMG	4.75945440e-05	2.61378240e-07	3	true
168             	smoothSolver	2.83140610e-04	2.39664480e-06	7	1.26359680e-03	1.05035400e-05	7	false	GAMG	4.68636440e-05	2.60805190e-07	3	true
169             	smoothSolver	2.78794360e-04	2.36013700e-06	7	1.24994560e-03	1.03919890e-05	7	false	GAMG	4.61440150e-05	2.60594940e-07	3	true
170             	smoothSolver	2.74531470e-04	2.32424310e-06	7	1.23643810e-03	1.02808300e-05	7	false	GAMG	4.54434100e-05	2.60580660e-07	3	true
171             	smoothSolver	2.70343970e-04	2.28900990e-06	7	1.22307470e-03	1.01703800e-05	7	false	GAMG	4.47525370e-05	2.60744130e-07	3	true
172             	smoothSolver	2.66237980e-04	2.25456220e-06	7	1.20998120e-03	1.00617830e-05	7	false	GAMG	4.40662490e-05	2.61026670e-07	3	true
173             	smoothSolver	2.62210920e-04	2.22081020e-06	7	1.19698290e-03	9.95559110e-06	7	false	GAMG	4.33902800e-05	2.61468180e-07	3	true
174             	smoothSolver	2.58267330e-04	2.18764860e-06	7	1.18413510e-03	9.85045050e-06	7	false	GAMG	4.27315390e-05	2.61938000e-07	3	true
175             	smoothSolver	2.54392260e-04	2.15510970e-06	7	1.17139890e-03	9.74554520e-06	7	false	GAMG	4.20874370e-05	2.62475970e-07	3	true
176             	smoothSolver	2.50582670e-04	2.12319240e-06	7	1.15878460e-03	9.64162440e-06	7	false	GAMG	4.14514250e-05	2.63029030e-07	3	true
177             	smoothSolver	2.46847530e-04	2.09188460e-06	7	1.14639900e-03	9.53876300e-06	7	false	GAMG	4.08254670e-05	2.63633100e-07	3	true
178             	smoothSolver	2.43193070e-04	2.06115100e-06	7	1.13413120e-03	9.43843060e-06	7	false	GAMG	4.02064810e-05	2.64207240e-07	3	true
179             	smoothSolver	2.39599550e-04	2.03096030e-06	7	1.12203240e-03	9.33918200e-06	7	false	GAMG	3.95942030e-05	2.64757680e-07	3	true
180             	smoothSolver	2.36073000e-04	2.00134100e-06	7	1.11004400e-03	9.24042590e-06	7	false	GAMG	3.89999350e-05	2.65195340e-07	3	true
181             	smoothSolver	2.32609870e-04	1.97228930e-06	7	1.09814960e-03	9.14268070e-06	7	false	GAMG	3.84159910e-05	2.65591080e-07	3	true
182             	smoothSolver	2.29212890e-04	1.94377730e-06	7	1.08643560e-03	9.04548550e-06	7	false	GAMG	3.78386540e-05	2.65874700e-07	3	true
183             	smoothSolver	2.25876910e-04	1.91577440e-06	7	1.07486370e-03	8.95052760e-06	7	false	GAMG	3.72674460e-05	2.66083140e-07	3	true
184             	smoothSolver	2.22601040e-04	1.88823970e-06	7	1.06345280e-03	8.85662380e-06	7	false	GAMG	3.67043900e-05	2.66213940e-07	3	true
185             	smoothSolver	2.19385640e-04	1.86121610e-06	7	1.05216520e-03	8.76358510e-06	7	false	GAMG	3.61546320e-05	2.66199440e-07	3	true
186             	smoothSolver	2.16228120e-04	1.83467600e-06	7	1.04093010e-03	8.67150050e-06	7	false	GAMG	3.56151010e-05	2.66068050e-07	3	true
187             	smoothSolver	2.13131770e-04	1.80864680e-06	7	1.02982780e-03	8.57987390e-06	7	false	GAMG	3.50808880e-05	2.65795370e-07	3	true
188             	smoothSolver	2.10080360e-04	1.78306740e-06	7	1.01891080e-03	8.48968760e-06	7	false	GAMG	3.45537080e-05	2.65401280e-07	3	true
189             	smoothSolver	2.07083060e-04	1.75789660e-06	7	1.00815890e-03	8.40096960e-06	7	false	GAMG	3.40373950e-05	2.64862280e-07	3	true
190             	smoothSolver	2.04141430e-04	1.73320250e-06	7	9.97503450e-04	8.31321990e-06	7	false	GAMG	3.35345820e-05	2.64216400e-07	3	true
191             	smoothSolver	2.01257150e-04	1.70896400e-06	7	9.86896640e-04	8.22641570e-06	7	false	GAMG	3.30377980e-05	2.63433460e-07	3	true
192             	smoothSolver	1.98423120e-04	1.68511070e-06	7	9.76386140e-04	8.14006730e-06	7	false	GAMG	3.25455630e-05	2.62494500e-07	3	true
193             	smoothSolver	1.95635190e-04	1.66166540e-06	7	9.66071540e-04	8.05437130e-06	7	false	GAMG	3.20632270e-05	2.61416440e-07	3	true
194             	smoothSolver	1.92889800e-04	1.63861640e-06	7	9.55931400e-04	7.97038870e-06	7	false	GAMG	3.15888190e-05	2.60214520e-07	3	true
195             	smoothSolver	1.90197070e-04	1.61603920e-06	7	9.45874050e-04	7.88770420e-06	7	false	GAMG	3.11221490e-05	2.58874690e-07	3	true
196             	smoothSolver	1.87554720e-04	1.59385360e-06	7	9.35874790e-04	7.80590860e-06	7	false	GAMG	3.06640460e-05	2.57407130e-07	3	true
197             	smoothSolver	1.84957880e-04	1.57199840e-06	7	9.25935850e-04	7.72453010e-06	7	false	GAMG	3.02127680e-05	2.55830760e-07	3	true
198             	smoothSolver	1.82395410e-04	1.55049470e-06	7	9.16190050e-04	7.64331700e-06	7	false	GAMG	2.97691340e-05	2.54159320e-07	3	true
199             	smoothSolver	1.79878010e-04	1.52940190e-06	7	9.06610010e-04	7.56366040e-06	7	false	GAMG	2.93352750e-05	2.52383740e-07	3	true
200             	smoothSolver	1.77411330e-04	1.50872010e-06	7	8.97111730e-04	7.48553820e-06	7	false	GAMG	2.89060890e-05	2.50496900e-07	3	true
201             	smoothSolver	1.74986690e-04	1.48834990e-06	7	8.87666090e-04	7.40838650e-06	7	false	GAMG	2.84845090e-05	2.48506230e-07	3	true
202             	smoothSolver	1.72600310e-04	1.46830570e-06	7	8.78261900e-04	7.33149250e-06	7	false	GAMG	2.80706280e-05	2.46420050e-07	3	true
203             	smoothSolver	1.70256600e-04	1.44859300e-06	7	8.69049130e-04	7.25490020e-06	7	false	GAMG	2.76618420e-05	2.44259230e-07	3	true
204             	smoothSolver	1.67947710e-04	1.42923040e-06	7	8.59989640e-04	7.17913320e-06	7	false	GAMG	2.72608850e-05	2.42016150e-07	3	true
205             	smoothSolver	1.65681530e-04	1.41018710e-06	7	8.51012160e-04	7.10538400e-06	7	false	GAMG	2.68638780e-05	2.39694640e-07	3	true
206             	smoothSolver	1.63453940e-04	1.39146250e-06	7	8.42090840e-04	7.03244190e-06	7	false	GAMG	2.64757390e-05	2.37297170e-07	3	true
207             	smoothSolver	1.61260970e-04	1.37303510e-06	7	8.33229060e-04	6.95986600e-06	7	false	GAMG	2.60946720e-05	2.34851530e-07	3	true
208             	smoothSolver	1.59104170e-04	1.35491610e-06	7	8.24515390e-04	6.88761220e-06	7	false	GAMG	2.57207170e-05	2.32368440e-07	3	true
209             	smoothSolver	1.56985020e-04	1.33711270e-06	7	8.15929820e-04	6.81580270e-06	7	false	GAMG	2.53510700e-05	2.29829210e-07	3	true