/*--------------------------------*- C++ -*----------------------------------*\
| =========                 |                                                 |
| \\      /  F ield         | OpenFOAM: The Open Source CFD Toolbox           |
|  \\    /   O peration     | Version:  2406                                  |
|   \\  /    A nd           | Website:  www.openfoam.com                      |
|    \\/     M anipulation  |                                                 |
\*---------------------------------------------------------------------------*/
FoamFile
{
    version     2.0;
    format      ascii;
    arch        "LSB;label=32;scalar=64";
    class       volScalarField;
    location    "42";
    object      p;
}
// * * * * * * * * * * * * * * * * * * * * * * * * * * * * * * * * * * * * * //

dimensions      [0 2 -2 0 0 0 0];

internalField   nonuniform List<scalar> 
1000
(
0.00056928325
0.00051435171
0.00048923021
0.00047752474
0.00046955837
0.00046338772
0.00045809818
0.00045314612
0.00044829795
0.00044346689
0.00043862405
0.0004337637
0.00042888832
0.00042400221
0.00041910918
0.00041421198
0.00040931241
0.00040441156
0.00039951007
0.00039460827
0.00038970634
0.00038480437
0.00037990237
0.00037500038
0.0003700984
0.00036519642
0.00036029445
0.00035539248
0.00035049051
0.00034558854
0.00034068658
0.00033578461
0.00033088265
0.00032598068
0.00032107872
0.00031617675
0.00031127479
0.00030637282
0.00030147086
0.00029656889
0.00029166693
0.00028676496
0.00028186299
0.00027696103
0.00027205906
0.0002671571
0.00026225513
0.00025735317
0.0002524512
0.00024754924
0.00024264727
0.00023774531
0.00023284334
0.00022794138
0.00022303941
0.00021813745
0.00021323548
0.00020833352
0.00020343155
0.00019852959
0.00019362762
0.00018872566
0.00018382369
0.00017892173
0.00017401976
0.00016911779
0.00016421583
0.00015931386
0.0001544119
0.00014950993
0.00014460797
0.000139706
0.00013480404
0.00012990207
0.00012500011
0.00012009814
0.00011519618
0.00011029421
0.00010539225
0.00010049028
9.558832e-05
9.0686356e-05
8.5784392e-05
8.0882428e-05
7.5980465e-05
7.1078501e-05
6.6176538e-05
6.1274574e-05
5.637261e-05
5.1470646e-05
4.6568682e-05
4.1666717e-05
3.6764752e-05
3.1862787e-05
2.6960822e-05
2.2058857e-05
1.7156891e-05
1.2254925e-05
7.3529585e-06
2.4509913e-06
0.000518078
0.00049877418
0.00048557034
0.00047684507
0.00046980568
0.00046381051
0.00045844345
0.00045337618
0.00044843594
0.00044354357
0.00043866383
0.00043378285
0.0004288967
0.00042400534
0.00041910997
0.00041421186
0.00040931204
0.0004044112
0.00039950979
0.00039460808
0.00038970622
0.00038480429
0.00037990233
0.00037500036
0.00037009839
0.00036519642
0.00036029445
0.00035539248
0.00035049051
0.00034558854
0.00034068658
0.00033578461
0.00033088265
0.00032598068
0.00032107872
0.00031617675
0.00031127479
0.00030637282
0.00030147086
0.00029656889
0.00029166693
0.00028676496
0.00028186299
0.00027696103
0.00027205906
0.0002671571
0.00026225513
0.00025735317
0.0002524512
0.00024754924
0.00024264727
0.00023774531
0.00023284334
0.00022794138
0.00022303941
0.00021813745
0.00021323548
0.00020833352
0.00020343155
0.00019852959
0.00019362762
0.00018872566
0.00018382369
0.00017892173
0.00017401976
0.00016911779
0.00016421583
0.00015931386
0.0001544119
0.00014950993
0.00014460797
0.000139706
0.00013480404
0.00012990207
0.00012500011
0.00012009814
0.00011519618
0.00011029421
0.00010539225
0.00010049028
9.558832e-05
9.0686356e-05
8.5784392e-05
8.0882429e-05
7.5980465e-05
7.1078501e-05
6.6176538e-05
6.1274574e-05
5.637261e-05
5.1470646e-05
4.6568681e-05
4.1666717e-05
3.6764752e-05
3.1862786e-05
2.6960821e-05
2.2058855e-05
1.7156889e-05
1.2254921e-05
7.3529567e-06
2.4509908e-06
0.00049528357
0.00048977626
0.00048292897
0.00047617023
0.00046986845
0.00046409516
0.00045871956
0.00045358081
0.00044857047
0.00044362542
0.00043871065
0.00043380817
0.00042890962
0.0004240115
0.00041911265
0.00041421286
0.00040931229
0.00040441116
0.00039950968
0.00039460797
0.00038970613
0.00038480423
0.00037990229
0.00037500034
0.00037009838
0.00036519641
0.00036029444
0.00035539248
0.00035049051
0.00034558854
0.00034068658
0.00033578461
0.00033088265
0.00032598068
0.00032107872
0.00031617675
0.00031127479
0.00030637282
0.00030147086
0.00029656889
0.00029166693
0.00028676496
0.00028186299
0.00027696103
0.00027205906
0.0002671571
0.00026225513
0.00025735317
0.0002524512
0.00024754924
0.00024264727
0.00023774531
0.00023284334
0.00022794138
0.00022303941
0.00021813745
0.00021323548
0.00020833352
0.00020343155
0.00019852959
0.00019362762
0.00018872566
0.00018382369
0.00017892173
0.00017401976
0.00016911779
0.00016421583
0.00015931386
0.0001544119
0.00014950993
0.00014460797
0.000139706
0.00013480404
0.00012990207
0.00012500011
0.00012009814
0.00011519618
0.00011029421
0.00010539225
0.00010049028
9.558832e-05
9.0686356e-05
8.5784392e-05
8.0882429e-05
7.5980465e-05
7.1078501e-05
6.6176538e-05
6.1274574e-05
5.637261e-05
5.1470646e-05
4.6568681e-05
4.1666716e-05
3.6764751e-05
3.1862786e-05
2.696082e-05
2.2058854e-05
1.7156887e-05
1.225492e-05
7.352953e-06
2.4509905e-06
0.00048606509
0.00048460607
0.00048057813
0.00047521417
0.00046961769
0.00046414643
0.00045885397
0.00045370995
0.00044866896
0.00044369222
0.0004387525
0.00043383283
0.00042892338
0.00042401878
0.00041911627
0.00041421454
0.00040931299
0.0004044114
0.00039950972
0.00039460794
0.00038970609
0.00038480419
0.00037990227
0.00037500032
0.00037009836
0.0003651964
0.00036029444
0.00035539247
0.00035049051
0.00034558854
0.00034068658
0.00033578461
0.00033088265
0.00032598068
0.00032107872
0.00031617675
0.00031127479
0.00030637282
0.00030147086
0.00029656889
0.00029166693
0.00028676496
0.00028186299
0.00027696103
0.00027205906
0.0002671571
0.00026225513
0.00025735317
0.0002524512
0.00024754924
0.00024264727
0.00023774531
0.00023284334
0.00022794138
0.00022303941
0.00021813745
0.00021323548
0.00020833352
0.00020343155
0.00019852959
0.00019362762
0.00018872566
0.00018382369
0.00017892173
0.00017401976
0.00016911779
0.00016421583
0.00015931386
0.0001544119
0.00014950993
0.00014460797
0.000139706
0.00013480404
0.00012990207
0.00012500011
0.00012009814
0.00011519618
0.00011029421
0.00010539225
0.00010049028
9.558832e-05
9.0686356e-05
8.5784392e-05
8.0882429e-05
7.5980465e-05
7.1078501e-05
6.6176538e-05
6.1274574e-05
5.637261e-05
5.1470645e-05
4.6568681e-05
4.1666716e-05
3.6764751e-05
3.1862785e-05
2.6960819e-05
2.2058852e-05
1.7156886e-05
1.2254918e-05
7.3529492e-06
2.4509904e-06
0.00048208696
0.00048203404
0.00047925974
0.00047465396
0.00046946014
0.0004641672
0.00045892934
0.00045378637
0.00044872906
0.00044373389
0.0004387791
0.00043384876
0.00042893242
0.00042402364
0.00041911875
0.00041421572
0.0004093135
0.00040441159
0.00039950977
0.00039460793
0.00038970607
0.00038480417
0.00037990225
0.00037500031
0.00037009835
0.0003651964
0.00036029443
0.00035539247
0.00035049051
0.00034558854
0.00034068658
0.00033578461
0.00033088265
0.00032598068
0.00032107872
0.00031617675
0.00031127479
0.00030637282
0.00030147086
0.00029656889
0.00029166693
0.00028676496
0.00028186299
0.00027696103
0.00027205906
0.0002671571
0.00026225513
0.00025735317
0.0002524512
0.00024754924
0.00024264727
0.00023774531
0.00023284334
0.00022794138
0.00022303941
0.00021813745
0.00021323548
0.00020833352
0.00020343155
0.00019852959
0.00019362762
0.00018872566
0.00018382369
0.00017892173
0.00017401976
0.00016911779
0.00016421583
0.00015931386
0.0001544119
0.00014950993
0.00014460797
0.000139706
0.00013480404
0.00012990207
0.00012500011
0.00012009814
0.00011519618
0.00011029421
0.00010539225
0.00010049028
9.558832e-05
9.0686356e-05
8.5784392e-05
8.0882428e-05
7.5980465e-05
7.1078501e-05
6.6176537e-05
6.1274574e-05
5.637261e-05
5.1470645e-05
4.6568681e-05
4.1666716e-05
3.676475e-05
3.1862785e-05
2.6960818e-05
2.2058852e-05
1.7156885e-05
1.2254918e-05
7.3529478e-06
2.4509889e-06
0.00048208696
0.00048203404
0.00047925974
0.00047465396
0.00046946014
0.0004641672
0.00045892935
0.00045378637
0.00044872907
0.0004437339
0.00043877911
0.00043384877
0.00042893242
0.00042402365
0.00041911876
0.00041421572
0.00040931351
0.0004044116
0.00039950977
0.00039460793
0.00038970607
0.00038480417
0.00037990225
0.00037500031
0.00037009835
0.0003651964
0.00036029443
0.00035539247
0.00035049051
0.00034558854
0.00034068658
0.00033578461
0.00033088265
0.00032598068
0.00032107872
0.00031617675
0.00031127479
0.00030637282
0.00030147086
0.00029656889
0.00029166693
0.00028676496
0.00028186299
0.00027696103
0.00027205906
0.0002671571
0.00026225513
0.00025735317
0.0002524512
0.00024754924
0.00024264727
0.00023774531
0.00023284334
0.00022794138
0.00022303941
0.00021813745
0.00021323548
0.00020833352
0.00020343155
0.00019852959
0.00019362762
0.00018872566
0.00018382369
0.00017892173
0.00017401976
0.00016911779
0.00016421583
0.00015931386
0.0001544119
0.00014950993
0.00014460797
0.000139706
0.00013480404
0.00012990207
0.00012500011
0.00012009814
0.00011519618
0.00011029421
0.00010539225
0.00010049028
9.558832e-05
9.0686356e-05
8.5784392e-05
8.0882428e-05
7.5980465e-05
7.1078501e-05
6.6176537e-05
6.1274573e-05
5.6372609e-05
5.1470645e-05
4.656868e-05
4.1666715e-05
3.676475e-05
3.1862784e-05
2.6960818e-05
2.2058851e-05
1.7156885e-05
1.2254918e-05
7.3529477e-06
2.4509853e-06
0.00048606509
0.00048460608
0.00048057814
0.00047521418
0.0004696177
0.00046414644
0.00045885398
0.00045370996
0.00044866898
0.00044369224
0.00043875252
0.00043383285
0.0004289234
0.0004240188
0.00041911629
0.00041421455
0.000409313
0.00040441141
0.00039950972
0.00039460794
0.00038970609
0.00038480419
0.00037990226
0.00037500032
0.00037009836
0.0003651964
0.00036029444
0.00035539247
0.00035049051
0.00034558854
0.00034068658
0.00033578461
0.00033088265
0.00032598068
0.00032107872
0.00031617675
0.00031127479
0.00030637282
0.00030147086
0.00029656889
0.00029166693
0.00028676496
0.00028186299
0.00027696103
0.00027205906
0.0002671571
0.00026225513
0.00025735317
0.0002524512
0.00024754924
0.00024264727
0.00023774531
0.00023284334
0.00022794138
0.00022303941
0.00021813745
0.00021323548
0.00020833352
0.00020343155
0.00019852959
0.00019362762
0.00018872566
0.00018382369
0.00017892173
0.00017401976
0.00016911779
0.00016421583
0.00015931386
0.0001544119
0.00014950993
0.00014460797
0.000139706
0.00013480404
0.00012990207
0.00012500011
0.00012009814
0.00011519618
0.00011029421
0.00010539225
0.00010049028
9.558832e-05
9.0686356e-05
8.5784392e-05
8.0882428e-05
7.5980465e-05
7.1078501e-05
6.6176537e-05
6.1274573e-05
5.6372609e-05
5.1470645e-05
4.656868e-05
4.1666715e-05
3.676475e-05
3.1862784e-05
2.6960818e-05
2.2058851e-05
1.7156884e-05
1.2254917e-05
7.3529493e-06
2.4509805e-06
0.00049528357
0.00048977627
0.00048292898
0.00047617024
0.00046986846
0.00046409517
0.00045871958
0.00045358084
0.0004485705
0.00044362545
0.00043871068
0.00043380821
0.00042890965
0.00042401153
0.00041911268
0.00041421288
0.00040931231
0.00040441118
0.00039950968
0.00039460797
0.00038970613
0.00038480423
0.00037990229
0.00037500033
0.00037009837
0.0003651964
0.00036029444
0.00035539247
0.00035049051
0.00034558854
0.00034068658
0.00033578461
0.00033088265
0.00032598068
0.00032107872
0.00031617675
0.00031127479
0.00030637282
0.00030147086
0.00029656889
0.00029166693
0.00028676496
0.00028186299
0.00027696103
0.00027205906
0.0002671571
0.00026225513
0.00025735317
0.0002524512
0.00024754924
0.00024264727
0.00023774531
0.00023284334
0.00022794138
0.00022303941
0.00021813745
0.00021323548
0.00020833352
0.00020343155
0.00019852959
0.00019362762
0.00018872566
0.00018382369
0.00017892173
0.00017401976
0.00016911779
0.00016421583
0.00015931386
0.0001544119
0.00014950993
0.00014460797
0.000139706
0.00013480404
0.00012990207
0.00012500011
0.00012009814
0.00011519618
0.00011029421
0.00010539225
0.00010049028
9.558832e-05
9.0686356e-05
8.5784392e-05
8.0882428e-05
7.5980465e-05
7.1078501e-05
6.6176537e-05
6.1274573e-05
5.6372609e-05
5.1470645e-05
4.656868e-05
4.1666715e-05
3.6764749e-05
3.1862783e-05
2.6960817e-05
2.205885e-05
1.7156883e-05
1.2254916e-05
7.3529505e-06
2.4509762e-06
0.00051807801
0.00049877419
0.00048557036
0.00047684508
0.0004698057
0.00046381054
0.00045844348
0.00045337622
0.00044843599
0.00044354362
0.00043866388
0.00043378291
0.00042889675
0.00042400538
0.00041911001
0.00041421189
0.00040931206
0.00040441121
0.0003995098
0.00039460808
0.00038970622
0.00038480429
0.00037990232
0.00037500035
0.00037009838
0.00036519641
0.00036029444
0.00035539247
0.00035049051
0.00034558854
0.00034068658
0.00033578461
0.00033088265
0.00032598068
0.00032107872
0.00031617675
0.00031127479
0.00030637282
0.00030147086
0.00029656889
0.00029166693
0.00028676496
0.00028186299
0.00027696103
0.00027205906
0.0002671571
0.00026225513
0.00025735317
0.0002524512
0.00024754924
0.00024264727
0.00023774531
0.00023284334
0.00022794138
0.00022303941
0.00021813745
0.00021323548
0.00020833352
0.00020343155
0.00019852959
0.00019362762
0.00018872566
0.00018382369
0.00017892173
0.00017401976
0.00016911779
0.00016421583
0.00015931386
0.0001544119
0.00014950993
0.00014460797
0.000139706
0.00013480404
0.00012990207
0.00012500011
0.00012009814
0.00011519618
0.00011029421
0.00010539225
0.00010049028
9.558832e-05
9.0686356e-05
8.5784392e-05
8.0882428e-05
7.5980465e-05
7.1078501e-05
6.6176537e-05
6.1274573e-05
5.6372609e-05
5.1470644e-05
4.6568679e-05
4.1666714e-05
3.6764748e-05
3.1862782e-05
2.6960815e-05
2.2058848e-05
1.715688e-05
1.2254912e-05
7.3529464e-06
2.450973e-06
0.00056928326
0.00051435172
0.00048923023
0.00047752476
0.0004695584
0.00046338775
0.00045809823
0.00045314618
0.00044829801
0.00044346695
0.00043862412
0.00043376376
0.00042888838
0.00042400227
0.00041910922
0.00041421201
0.00040931243
0.00040441157
0.00039951008
0.00039460827
0.00038970634
0.00038480435
0.00037990236
0.00037500037
0.00037009839
0.00036519641
0.00036029444
0.00035539247
0.00035049051
0.00034558854
0.00034068658
0.00033578461
0.00033088265
0.00032598068
0.00032107872
0.00031617675
0.00031127479
0.00030637282
0.00030147086
0.00029656889
0.00029166693
0.00028676496
0.00028186299
0.00027696103
0.00027205906
0.0002671571
0.00026225513
0.00025735317
0.0002524512
0.00024754924
0.00024264727
0.00023774531
0.00023284334
0.00022794138
0.00022303941
0.00021813745
0.00021323548
0.00020833352
0.00020343155
0.00019852959
0.00019362762
0.00018872566
0.00018382369
0.00017892173
0.00017401976
0.00016911779
0.00016421583
0.00015931386
0.0001544119
0.00014950993
0.00014460797
0.000139706
0.00013480404
0.00012990207
0.00012500011
0.00012009814
0.00011519618
0.00011029421
0.00010539225
0.00010049028
9.558832e-05
9.0686356e-05
8.5784392e-05
8.0882429e-05
7.5980465e-05
7.1078501e-05
6.6176537e-05
6.1274573e-05
5.6372609e-05
5.1470644e-05
4.6568679e-05
4.1666714e-05
3.6764748e-05
3.1862781e-05
2.6960813e-05
2.2058845e-05
1.7156877e-05
1.2254909e-05
7.3529411e-06
2.4509734e-06
)
;

boundaryField
{
    inlet
    {
        type            zeroGradient;
    }
    outlet
    {
        type            fixedValue;
        value           uniform 0;
    }
    walls
    {
        type            zeroGradient;
    }
    frontAndBack
    {
        type            empty;
    }
}


// ************************************************************************* //
