/*--------------------------------*- C++ -*----------------------------------*\
| =========                 |                                                 |
| \\      /  F ield         | OpenFOAM: The Open Source CFD Toolbox           |
|  \\    /   O peration     | Version:  2406                                  |
|   \\  /    A nd           | Website:  www.openfoam.com                      |
|    \\/     M anipulation  |                                                 |
\*---------------------------------------------------------------------------*/
FoamFile
{
    version     2.0;
    format      ascii;
    arch        "LSB;label=32;scalar=64";
    class       surfaceScalarField;
    location    "42";
    object      phi;
}
// * * * * * * * * * * * * * * * * * * * * * * * * * * * * * * * * * * * * * //

dimensions      [0 3 -1 0 0 0 0];

oriented        oriented;

internalField   nonuniform List<scalar> 
1890
(
3.2023687e-12
9.64298e-13
2.3471315e-12
8.5523717e-13
1.8327211e-12
5.1441037e-13
1.5404307e-12
2.9229045e-13
1.380886e-12
1.595447e-13
1.2978568e-12
8.3029205e-14
1.2566217e-12
4.1235086e-14
1.2372041e-12
1.9417616e-14
1.2287143e-12
8.4897759e-15
1.2254307e-12
3.2836023e-15
1.2244587e-12
9.7194731e-16
1.2244036e-12
5.508798e-17
1.2246369e-12
-2.3329113e-16
1.2249035e-12
-2.6651348e-16
1.2251187e-12
-2.1519756e-16
1.2252688e-12
-1.5014291e-16
1.2253647e-12
-9.5890348e-17
1.2254221e-12
-5.7387568e-17
1.2254546e-12
-3.2516519e-17
1.2254721e-12
-1.7501663e-17
1.225481e-12
-8.9305106e-18
1.2254853e-12
-4.2842425e-18
1.2254872e-12
-1.8948126e-18
1.2254879e-12
-7.3648998e-19
1.2254882e-12
-2.1517256e-19
1.2254882e-12
-4.7075278e-21
1.2254881e-12
6.4450931e-20
1.225488e-12
7.5468563e-20
1.225488e-12
6.6242551e-20
1.2254879e-12
5.2524832e-20
1.2254879e-12
3.9835721e-20
1.2254878e-12
2.9586153e-20
1.2254878e-12
2.1636545e-20
1.2254878e-12
1.5571149e-20
1.2254878e-12
1.0919716e-20
1.2254878e-12
7.3984608e-21
1.2254878e-12
4.7397536e-21
1.2254878e-12
2.8058637e-21
1.2254878e-12
1.4198474e-21
1.2254878e-12
4.9711709e-22
1.2254878e-12
-1.0024063e-22
1.2254878e-12
-4.2596046e-22
1.2254878e-12
-5.8956072e-22
1.2254878e-12
-6.1236235e-22
1.2254878e-12
-5.7413838e-22
1.2254878e-12
-4.7233376e-22
1.2254878e-12
-3.6916522e-22
1.2254878e-12
-2.4574828e-22
1.2254878e-12
-1.473598e-22
1.2254878e-12
-5.0195201e-23
1.2254878e-12
9.8180768e-24
1.2254878e-12
6.0269131e-23
1.2254878e-12
7.9373556e-23
1.2254878e-12
8.9960135e-23
1.2254878e-12
7.6737594e-23
1.2254878e-12
5.8667558e-23
1.2254878e-12
2.9231617e-23
1.2254878e-12
-1.1190945e-24
1.2254878e-12
-3.6691165e-23
1.2254878e-12
-7.1094782e-23
1.2254878e-12
-1.066245e-22
1.2254878e-12
-1.3950418e-22
1.2254878e-12
-1.7571328e-22
1.2254878e-12
-2.1260738e-22
1.2254878e-12
-2.6563572e-22
1.2254878e-12
-3.235359e-22
1.2254878e-12
-4.1171964e-22
1.2254878e-12
-5.0758421e-22
1.2254878e-12
-6.5273819e-22
1.2254878e-12
-7.9080993e-22
1.2254878e-12
-9.7628908e-22
1.2254878e-12
-1.1234132e-21
1.2254878e-12
-1.3089305e-21
1.2254878e-12
-1.4083878e-21
1.2254878e-12
-1.5252412e-21
1.2254878e-12
-1.5178775e-21
1.2254878e-12
-1.5163342e-21
1.2254878e-12
-1.3638575e-21
1.2254878e-12
-1.2101664e-21
1.2254878e-12
-8.8923803e-22
1.2254878e-12
-5.4119838e-22
1.2254878e-12
8.838924e-25
1.2254878e-12
6.1107987e-22
1.2254878e-12
1.4433349e-21
1.2254878e-12
2.3972866e-21
1.2254878e-12
3.5231962e-21
1.2254878e-12
4.6660327e-21
1.2254878e-12
5.6512086e-21
1.2254877e-12
6.1457893e-21
1.2254877e-12
5.5054639e-21
1.2254878e-12
2.9897971e-21
1.2254878e-12
-2.6652294e-21
1.2254878e-12
-1.2804359e-20
1.2254878e-12
-2.8916552e-20
1.2254879e-12
-5.2282606e-20
1.225488e-12
-8.5969031e-20
1.2254881e-12
-1.2875649e-19
1.2254883e-12
-1.7114226e-19
1.2254885e-12
-2.3924507e-19
-3.5667585e-19
4.3380995e-12
7.9286521e-13
4.1240954e-12
1.0692412e-12
3.8161261e-12
8.223796e-13
3.5674682e-12
5.4094837e-13
3.4004057e-12
3.2660722e-13
3.2988238e-12
1.8461115e-13
3.2414121e-12
9.8646713e-14
3.2109989e-12
4.983086e-14
3.1959407e-12
2.3548016e-14
3.1890795e-12
1.0144765e-14
3.1863182e-12
3.7332922e-15
3.1854526e-12
9.2066061e-16
3.1853695e-12
-1.5021734e-16
3.185547e-12
-4.4398678e-16
3.1857647e-12
-4.3284754e-16
3.1859454e-12
-3.3085102e-16
3.1860737e-12
-2.2427171e-16
3.186157e-12
-1.4058756e-16
3.1862074e-12
-8.2995628e-17
3.1862365e-12
-4.6521141e-17
3.1862523e-12
-2.4819066e-17
3.1862606e-12
-1.257314e-17
3.1862647e-12
-5.9971307e-18
3.1862666e-12
-2.6395592e-18
3.1862674e-12
-1.0185581e-18
3.1862677e-12
-2.8810769e-19
3.1862678e-12
1.0114183e-20
3.1862677e-12
1.1161325e-19
3.1862677e-12
1.3074243e-19
3.1862676e-12
1.1949245e-19
3.1862675e-12
9.968154e-20
3.1862675e-12
7.9500291e-20
3.1862675e-12
6.1531594e-20
3.1862674e-12
4.6306137e-20
3.1862674e-12
3.3740752e-20
3.1862674e-12
2.3604067e-20
3.1862674e-12
1.5642481e-20
3.1862674e-12
9.5929284e-21
3.1862674e-12
5.1854578e-21
3.1862674e-12
2.1358731e-21
3.1862674e-12
1.6426266e-22
3.1862674e-12
-9.9086431e-22
3.1862674e-12
-1.5484618e-21
3.1862674e-12
-1.6993125e-21
3.1862674e-12
-1.5924367e-21
3.1862674e-12
-1.3478355e-21
3.1862674e-12
-1.042043e-21
3.1862674e-12
-7.3699048e-22
3.1862674e-12
-4.7167448e-22
3.1862674e-12
-2.7210517e-22
3.1862674e-12
-1.4291534e-22
3.1862674e-12
-8.2205316e-23
3.1862674e-12
-8.5031697e-23
3.1862674e-12
-1.3721282e-22
3.1862674e-12
-2.2313406e-22
3.1862674e-12
-3.2355933e-22
3.1862674e-12
-4.312058e-22
3.1862674e-12
-5.3142549e-22
3.1862674e-12
-6.1718392e-22
3.1862674e-12
-6.8038062e-22
3.1862674e-12
-7.2381219e-22
3.1862674e-12
-7.4642667e-22
3.1862674e-12
-7.4867085e-22
3.1862674e-12
-7.3926108e-22
3.1862674e-12
-7.2539061e-22
3.1862674e-12
-7.2086731e-22
3.1862674e-12
-7.2218466e-22
3.1862674e-12
-7.4940359e-22
3.1862674e-12
-7.9585291e-22
3.1862674e-12
-8.7865663e-22
3.1862674e-12
-9.6401976e-22
3.1862674e-12
-1.065223e-21
3.1862674e-12
-1.1426767e-21
3.1862674e-12
-1.2091934e-21
3.1862674e-12
-1.2049348e-21
3.1862674e-12
-1.1409637e-21
3.1862673e-12
-9.7112991e-22
3.1862673e-12
-7.0855025e-22
3.1862673e-12
-2.9132574e-22
3.1862673e-12
2.9133804e-22
3.1862673e-12
1.0944839e-21
3.1862673e-12
2.1446678e-21
3.1862673e-12
3.5009334e-21
3.1862673e-12
5.1876305e-21
3.1862673e-12
7.1467896e-21
3.1862673e-12
9.2285238e-21
3.1862673e-12
1.1017197e-20
3.1862673e-12
1.1836789e-20
3.1862673e-12
1.0384124e-20
3.1862673e-12
4.8213527e-21
3.1862673e-12
-7.681722e-21
3.1862674e-12
-3.0692905e-20
3.1862674e-12
-6.8645378e-20
3.1862676e-12
-1.2602921e-19
3.1862677e-12
-2.0749337e-19
3.186268e-12
-3.1554878e-19
3.1862683e-12
-4.440776e-19
3.1862687e-12
-5.8982665e-19
3.1862692e-12
-7.2640148e-19
-8.6841462e-19
4.446268e-12
5.1326388e-13
4.6796698e-12
8.3583944e-13
4.7574602e-12
7.4458919e-13
4.7562298e-12
5.4217876e-13
4.7303286e-12
3.5250843e-13
4.7036697e-12
2.1127007e-13
4.6837768e-12
1.1853961e-13
4.6710488e-12
6.2558873e-14
4.6636929e-12
3.0903899e-14
4.6597851e-12
1.4052553e-14
4.6578792e-12
5.6391929e-15
4.6570443e-12
1.755545e-15
4.6567376e-12
1.5654373e-16
4.6566665e-12
-3.7292775e-16
4.6566855e-12
-4.5183167e-16
4.6567284e-12
-3.7379167e-16
4.6567693e-12
-2.6509569e-16
4.6568003e-12
-1.7164815e-16
4.6568215e-12
-1.0411806e-16
4.6568348e-12
-5.9887578e-17
4.6568428e-12
-3.2844383e-17
4.6568475e-12
-1.7194836e-17
4.65685e-12
-8.566167e-18
4.6568514e-12
-4.0212156e-18
4.6568521e-12
-1.7351202e-18
4.6568525e-12
-6.4101472e-19
4.6568526e-12
-1.4760476e-19
4.6568527e-12
5.6935909e-20
4.6568527e-12
1.2900039e-19
4.6568527e-12
1.4335192e-19
4.6568526e-12
1.3394888e-19
4.6568526e-12
1.157449e-19
4.6568526e-12
9.5112061e-20
4.6568525e-12
7.4978411e-20
4.6568525e-12
5.665679e-20
4.6568525e-12
4.0884804e-20
4.6568525e-12
2.787402e-20
4.6568525e-12
1.7678112e-20
4.6568525e-12
1.0027553e-20
4.6568525e-12
4.6406552e-21
4.6568525e-12
1.0528919e-21
4.6568525e-12
-1.0854695e-21
4.6568525e-12
-2.2093606e-21
4.6568525e-12
-2.5834435e-21
4.6568525e-12
-2.5283825e-21
4.6568525e-12
-2.183369e-21
4.6568525e-12
-1.7494203e-21
4.6568525e-12
-1.268262e-21
4.6568525e-12
-8.624667e-22
4.6568525e-12
-5.1016156e-22
4.6568525e-12
-2.8068956e-22
4.6568525e-12
-1.2004212e-22
4.6568525e-12
-7.2357725e-23
4.6568525e-12
-6.9477753e-23
4.6568525e-12
-1.409159e-22
4.6568525e-12
-2.220219e-22
4.6568525e-12
-3.4171459e-22
4.6568525e-12
-4.4332575e-22
4.6568525e-12
-5.562052e-22
4.6568525e-12
-6.3674796e-22
4.6568525e-12
-7.1856822e-22
4.6568525e-12
-7.6619972e-22
4.6568525e-12
-8.1636439e-22
4.6568525e-12
-8.4327192e-22
4.6568525e-12
-8.8959905e-22
4.6568525e-12
-9.2901186e-22
4.6568525e-12
-1.006064e-21
4.6568525e-12
-1.0886774e-21
4.6568525e-12
-1.2255213e-21
4.6568525e-12
-1.3615384e-21
4.6568525e-12
-1.5397231e-21
4.6568525e-12
-1.6777587e-21
4.6568525e-12
-1.8286393e-21
4.6568525e-12
-1.8799227e-21
4.6568525e-12
-1.8888206e-21
4.6568525e-12
-1.7212264e-21
4.6568525e-12
-1.457538e-21
4.6568525e-12
-9.369701e-22
4.6568524e-12
-2.3324032e-22
4.6568524e-12
8.4611472e-22
4.6568524e-12
2.2283851e-21
4.6568524e-12
4.1304062e-21
4.6568524e-12
6.4717743e-21
4.6568524e-12
9.3921568e-21
4.6568524e-12
1.2623983e-20
4.6568524e-12
1.5921637e-20
4.6568524e-12
1.8384006e-20
4.6568524e-12
1.8673815e-20
4.6568524e-12
1.4342073e-20
4.6568524e-12
1.8175609e-21
4.6568525e-12
-2.4119534e-20
4.6568525e-12
-7.0177039e-20
4.6568526e-12
-1.4452772e-19
4.6568527e-12
-2.5605944e-19
4.656853e-12
-4.1173716e-19
4.6568533e-12
-6.1303097e-19
4.6568537e-12
-8.5935045e-19
4.6568542e-12
-1.1101278e-18
4.6568548e-12
-1.3321213e-18
-1.4568198e-18
4.4330352e-12
2.4689537e-13
4.8281257e-12
4.4074888e-13
5.1481018e-12
4.2461312e-13
5.3624977e-12
3.2778284e-13
5.4922782e-12
2.2272792e-13
5.5653262e-12
1.3822211e-13
5.6040677e-12
7.9798162e-14
5.6234533e-12
4.3173218e-14
5.632509e-12
2.184817e-14
5.6363499e-12
1.0211735e-14
5.6377249e-12
4.2641766e-15
5.6380342e-12
1.446206e-15
5.6379478e-12
2.4300811e-16
5.6377602e-12
-1.8532915e-16
5.6375845e-12
-2.7617441e-16
5.6374527e-12
-2.4193502e-16
5.6373644e-12
-1.768109e-16
5.6373097e-12
-1.1693677e-16
5.6372778e-12
-7.226157e-17
5.6372603e-12
-4.2383266e-17
5.6372513e-12
-2.3801147e-17
5.6372469e-12
-1.2862625e-17
5.6372451e-12
-6.7055586e-18
5.6372444e-12
-3.3681355e-18
5.6372443e-12
-1.614894e-18
5.6372444e-12
-7.1665265e-19
5.6372445e-12
-2.6497894e-19
5.6372446e-12
-4.2004816e-20
5.6372447e-12
6.4575637e-20
5.6372447e-12
1.1062706e-19
5.6372447e-12
1.2448125e-19
5.6372447e-12
1.2045725e-19
5.6372447e-12
1.0705467e-19
5.6372447e-12
8.907571e-20
5.6372447e-12
7.0128883e-20
5.6372447e-12
5.2076729e-20
5.6372447e-12
3.6464258e-20
5.6372446e-12
2.3592739e-20
5.6372446e-12
1.3832334e-20
5.6372446e-12
6.6714747e-21
5.6372446e-12
1.9700561e-21
5.6372446e-12
-1.0257589e-21
5.6372446e-12
-2.5158059e-21
5.6372446e-12
-3.1844157e-21
5.6372446e-12
-3.1045677e-21
5.6372446e-12
-2.8037535e-21
5.6372446e-12
-2.2042426e-21
5.6372446e-12
-1.6974941e-21
5.6372446e-12
-1.1021417e-21
5.6372446e-12
-7.2260337e-22
5.6372446e-12
-3.2120391e-22
5.6372446e-12
-1.4926443e-22
5.6372446e-12
4.7883152e-23
5.6372446e-12
4.8112845e-23
5.6372446e-12
9.8927381e-23
5.6372446e-12
-5.2737635e-25
5.6372446e-12
-2.4923469e-23
5.6372446e-12
-1.6130594e-22
5.6372446e-12
-2.1056761e-22
5.6372446e-12
-3.4533337e-22
5.6372446e-12
-3.911292e-22
5.6372447e-12
-5.1292823e-22
5.6372447e-12
-5.5301493e-22
5.6372447e-12
-6.7484952e-22
5.6372447e-12
-7.27241e-22
5.6372447e-12
-8.8286264e-22
5.6372447e-12
-9.7300043e-22
5.6372446e-12
-1.1921305e-21
5.6372446e-12
-1.3332704e-21
5.6372446e-12
-1.6220432e-21
5.6372446e-12
-1.7765771e-21
5.6372446e-12
-2.0738439e-21
5.6372446e-12
-2.1509601e-21
5.6372446e-12
-2.3495739e-21
5.6372446e-12
-2.2076424e-21
5.6372446e-12
-2.1470966e-21
5.6372446e-12
-1.6190173e-21
5.6372446e-12
-1.1118033e-21
5.6372446e-12
2.4050211e-23
5.6372446e-12
1.2581427e-21
5.6372446e-12
3.3168296e-21
5.6372446e-12
5.641822e-21
5.6372446e-12
8.9561512e-21
5.6372446e-12
1.2586048e-20
5.6372446e-12
1.6962168e-20
5.6372446e-12
2.0920616e-20
5.6372446e-12
2.38936e-20
5.6372446e-12
2.3331199e-20
5.6372446e-12
1.6335743e-20
5.6372446e-12
-2.6251456e-21
5.6372446e-12
-4.0558351e-20
5.6372447e-12
-1.0742737e-19
5.6372448e-12
-2.1484147e-19
5.6372449e-12
-3.7570155e-19
5.6372451e-12
-6.0028714e-19
5.6372454e-12
-8.9374314e-19
5.6372458e-12
-1.2426328e-18
5.6372462e-12
-1.6037759e-18
5.6372468e-12
-1.9111398e-18
-1.9976417e-18
4.413562e-12
-7.7819008e-21
4.8543108e-12
1.3076012e-19
5.2789235e-12
4.5423801e-19
5.6067053e-12
9.7936092e-19
5.8294316e-12
1.6798248e-18
5.9676512e-12
2.4922665e-18
6.047446e-12
3.3270337e-18
6.0906152e-12
4.0803225e-18
6.1124587e-12
4.6491817e-18
6.1226655e-12
4.9513031e-18
6.1269247e-12
4.9386639e-18
6.1283663e-12
4.6079183e-18
6.1286054e-12
3.998645e-18
6.1284168e-12
3.1867084e-18
6.1281384e-12
2.2681278e-18
6.1278951e-12
1.3436164e-18
6.1277178e-12
5.0173287e-19
6.1276011e-12
-1.91549e-19
6.1275295e-12
-6.9937198e-19
6.1274882e-12
-1.0132819e-18
6.1274655e-12
-1.1492059e-18
6.1274538e-12
-1.1395075e-18
6.1274481e-12
-1.0252767e-18
6.1274456e-12
-8.4830626e-19
6.1274446e-12
-6.4599618e-19
6.1274443e-12
-4.4730375e-19
6.1274443e-12
-2.7211278e-19
6.1274444e-12
-1.3095733e-19
6.1274445e-12
-2.7298554e-20
6.1274446e-12
4.1189118e-20
6.1274446e-12
7.971934e-20
6.1274447e-12
9.5388769e-20
6.1274447e-12
9.4967134e-20
6.1274447e-12
8.4852632e-20
6.1274447e-12
6.9773431e-20
6.1274447e-12
5.351168e-20
6.1274447e-12
3.8158106e-20
6.1274447e-12
2.5180872e-20
6.1274447e-12
1.4861338e-20
6.1274447e-12
7.3805944e-21
6.1274447e-12
2.2076654e-21
6.1274447e-12
-9.1380753e-22
6.1274447e-12
-2.6681851e-21
6.1274447e-12
-3.2900999e-21
6.1274447e-12
-3.3471736e-21
6.1274447e-12
-2.9198879e-21
6.1274447e-12
-2.4105633e-21
6.1274447e-12
-1.7530932e-21
6.1274447e-12
-1.2313469e-21
6.1274447e-12
-6.9584788e-22
6.1274447e-12
-3.5830789e-22
6.1274447e-12
-2.7032953e-23
6.1274447e-12
1.1976969e-22
6.1274447e-12
2.7637739e-22
6.1274447e-12
2.8352979e-22
6.1274447e-12
3.2884026e-22
6.1274447e-12
2.6024241e-22
6.1274447e-12
2.4519948e-22
6.1274447e-12
1.3996204e-22
6.1274447e-12
9.8737328e-23
6.1274447e-12
-1.9633407e-23
6.1274447e-12
-7.5926513e-23
6.1274447e-12
-2.091746e-22
6.1274447e-12
-2.8512276e-22
6.1274447e-12
-4.5033873e-22
6.1274447e-12
-5.6609316e-22
6.1274447e-12
-7.8812427e-22
6.1274447e-12
-9.5690638e-22
6.1274447e-12
-1.2465376e-21
6.1274447e-12
-1.4551019e-21
6.1274447e-12
-1.7751601e-21
6.1274447e-12
-1.9509862e-21
6.1274447e-12
-2.2092945e-21
6.1274447e-12
-2.2348046e-21
6.1274447e-12
-2.2896784e-21
6.1274447e-12
-1.9993057e-21
6.1274446e-12
-1.6663496e-21
6.1274446e-12
-8.5833906e-22
6.1274446e-12
1.0888052e-22
6.1274446e-12
1.7365503e-21
6.1274446e-12
3.7075984e-21
6.1274446e-12
6.5450225e-21
6.1274446e-12
9.8965467e-21
6.1274446e-12
1.4160953e-20
6.1274446e-12
1.8697791e-20
6.1274446e-12
2.3266738e-20
6.1274446e-12
2.6232859e-20
6.1274446e-12
2.5629485e-20
6.1274446e-12
1.7325577e-20
6.1274446e-12
-4.3316798e-21
6.1274447e-12
-4.8115033e-20
6.1274447e-12
-1.2534291e-19
6.1274447e-12
-2.5035433e-19
6.1274448e-12
-4.3886433e-19
6.1274449e-12
-7.050184e-19
6.1274451e-12
-1.0532958e-18
6.1274453e-12
-1.468136e-18
6.1274456e-12
-1.916778e-18
6.127446e-12
-2.2645985e-18
-2.3288214e-18
4.4135621e-12
-2.4689539e-13
4.8543108e-12
-4.4074866e-13
5.2789236e-12
-4.2461232e-13
5.6067057e-12
-3.2778109e-13
5.8294323e-12
-2.2272489e-13
5.9676524e-12
-1.382176e-13
6.0474478e-12
-7.9792124e-14
6.0906177e-12
-4.3165805e-14
6.1124621e-12
-2.1839716e-14
6.1226698e-12
-1.020273e-14
6.1269299e-12
-4.2551966e-15
6.1283724e-12
-1.4378329e-15
6.1286121e-12
-2.3575035e-16
6.1284242e-12
1.9110232e-16
6.1281462e-12
2.8027019e-16
6.1279032e-12
2.4434468e-16
6.127726e-12
1.7768762e-16
6.1276093e-12
1.1655365e-16
6.1275376e-12
7.0958508e-17
6.1274961e-12
4.0514714e-17
6.1274733e-12
2.1691861e-17
6.1274613e-12
1.0777549e-17
6.1274555e-12
4.8343435e-18
6.1274528e-12
1.8237982e-18
6.1274517e-12
4.4232942e-19
6.1274514e-12
-9.2108719e-20
6.1274513e-12
-2.2382576e-19
6.1274514e-12
-1.8979608e-19
6.1274515e-12
-1.0818704e-19
6.1274515e-12
-3.0537657e-20
6.1274516e-12
2.4700969e-20
6.1274516e-12
5.6123384e-20
6.1274517e-12
6.7826067e-20
6.1274517e-12
6.6549563e-20
6.1274517e-12
5.7475869e-20
6.1274517e-12
4.54529e-20
6.1274517e-12
3.2877084e-20
6.1274517e-12
2.1926917e-20
6.1274517e-12
1.2876436e-20
6.1274517e-12
6.3717313e-21
6.1274517e-12
1.7258933e-21
6.1274517e-12
-9.5473399e-22
6.1274517e-12
-2.5594691e-21
6.1274517e-12
-3.0084518e-21
6.1274517e-12
-3.0996795e-21
6.1274517e-12
-2.6212087e-21
6.1274517e-12
-2.2129241e-21
6.1274517e-12
-1.5354855e-21
6.1274517e-12
-1.1188821e-21
6.1274517e-12
-5.5362689e-22
6.1274517e-12
-2.9116161e-22
6.1274517e-12
9.8596944e-23
6.1274517e-12
2.0475253e-22
6.1274517e-12
4.3915345e-22
6.1274517e-12
4.335735e-22
6.1274517e-12
5.6414982e-22
6.1274517e-12
4.936584e-22
6.1274517e-12
5.5336151e-22
6.1274517e-12
4.4541481e-22
6.1274517e-12
4.6196701e-22
6.1274517e-12
3.2970115e-22
6.1274517e-12
3.1243624e-22
6.1274517e-12
1.518551e-22
6.1274517e-12
1.0446705e-22
6.1274517e-12
-1.0192097e-22
6.1274517e-12
-1.8575458e-22
6.1274517e-12
-4.6000224e-22
6.1274517e-12
-5.785605e-22
6.1274517e-12
-9.3208842e-22
6.1274517e-12
-1.0598585e-21
6.1274517e-12
-1.4601639e-21
6.1274517e-12
-1.5227453e-21
6.1274517e-12
-1.893134e-21
6.1274517e-12
-1.7844541e-21
6.1274517e-12
-1.9974958e-21
6.1274517e-12
-1.5663096e-21
6.1274517e-12
-1.45776e-21
6.1274517e-12
-5.3167782e-22
6.1274517e-12
1.3776422e-22
6.1274517e-12
1.8418451e-21
6.1274517e-12
3.4279253e-21
6.1274517e-12
6.2628687e-21
6.1274517e-12
9.1659326e-21
6.1274517e-12
1.3378081e-20
6.1274517e-12
1.7504022e-20
6.1274517e-12
2.2123323e-20
6.1274517e-12
2.5069594e-20
6.1274517e-12
2.5126829e-20
6.1274517e-12
1.7935349e-20
6.1274517e-12
-1.5455575e-21
6.1274517e-12
-4.2067197e-20
6.1274517e-12
-1.1474817e-19
6.1274517e-12
-2.342746e-19
6.1274517e-12
-4.1708643e-19
6.1274516e-12
-6.7807952e-19
6.1274516e-12
-1.0241425e-18
6.1274516e-12
-1.4453089e-18
6.1274516e-12
-1.8910585e-18
6.1274516e-12
-2.2546865e-18
-2.3066881e-18
4.4330352e-12
-5.1326392e-13
4.8281259e-12
-8.3583933e-13
5.1481022e-12
-7.4458866e-13
5.3624987e-12
-5.4217754e-13
5.49228e-12
-3.5250626e-13
5.5653292e-12
-2.112668e-13
5.6040723e-12
-1.185352e-13
5.62346e-12
-6.2553432e-14
5.6325179e-12
-3.0897678e-14
5.6363611e-12
-1.4045923e-14
5.6377385e-12
-5.6325837e-15
5.6380501e-12
-1.7493944e-15
5.6379655e-12
-1.512299e-16
5.6377795e-12
3.7713067e-16
5.637605e-12
4.5478449e-16
5.6374739e-12
3.7549193e-16
5.6373859e-12
2.6566287e-16
5.6373312e-12
1.7128935e-16
5.637299e-12
1.0308964e-16
5.6372811e-12
5.8454427e-17
5.6372715e-12
3.1248273e-17
5.6372667e-12
1.5631037e-17
5.6372643e-12
7.1735461e-18
5.6372633e-12
2.8804516e-18
5.6372629e-12
8.7683137e-19
5.6372627e-12
5.6018711e-20
5.6372627e-12
-1.9862752e-19
5.6372627e-12
-2.133961e-19
5.6372627e-12
-1.4747225e-19
5.6372628e-12
-7.2815884e-20
5.6372628e-12
-1.4579882e-20
5.6372629e-12
2.1149568e-20
5.6372629e-12
3.8602309e-20
5.6372629e-12
4.2444267e-20
5.6372629e-12
3.8964384e-20
5.6372629e-12
3.129237e-20
5.637263e-12
2.3124695e-20
5.637263e-12
1.512154e-20
5.637263e-12
8.9910709e-21
5.637263e-12
4.0207058e-21
5.637263e-12
1.0237702e-21
5.637263e-12
-1.1686444e-21
5.637263e-12
-1.9540914e-21
5.637263e-12
-2.5241318e-21
5.637263e-12
-2.2276166e-21
5.637263e-12
-2.139267e-21
5.637263e-12
-1.5009564e-21
5.637263e-12
-1.2783615e-21
5.637263e-12
-6.5374564e-22
5.637263e-12
-5.0665341e-22
5.637263e-12
-2.7424309e-24
5.637263e-12
3.8903509e-23
5.637263e-12
4.1584514e-22
5.637263e-12
3.7196171e-22
5.637263e-12
6.4968647e-22
5.637263e-12
5.5444595e-22
5.637263e-12
7.5396345e-22
5.637263e-12
6.2063109e-22
5.637263e-12
7.5948495e-22
5.637263e-12
5.9699821e-22
5.637263e-12
6.8660714e-22
5.637263e-12
4.874674e-22
5.637263e-12
5.3940518e-22
5.637263e-12
2.9207372e-22
5.637263e-12
3.1375959e-22
5.637263e-12
-6.7057071e-24
5.637263e-12
-3.8056682e-24
5.637263e-12
-4.1507761e-22
5.637263e-12
-4.1110303e-22
5.637263e-12
-9.1378207e-22
5.637263e-12
-8.5448728e-22
5.637263e-12
-1.4030656e-21
5.637263e-12
-1.2156174e-21
5.637263e-12
-1.7341428e-21
5.6372629e-12
-1.310965e-21
5.6372629e-12
-1.6766638e-21
5.6372629e-12
-9.1153389e-22
5.6372629e-12
-9.7479653e-22
5.6372629e-12
2.9989062e-22
5.6372629e-12
7.9188499e-22
5.6372629e-12
2.806747e-21
5.6372629e-12
4.1942258e-21
5.6372629e-12
7.2590497e-21
5.6372629e-12
9.8639965e-21
5.6372629e-12
1.3954311e-20
5.6372629e-12
1.7275069e-20
5.6372629e-12
2.0747023e-20
5.637263e-12
2.1318626e-20
5.637263e-12
1.7548071e-20
5.637263e-12
4.0946958e-21
5.637263e-12
-2.4855251e-20
5.6372629e-12
-7.9025554e-20
5.6372629e-12
-1.7030994e-19
5.6372628e-12
-3.1268066e-19
5.6372626e-12
-5.2039873e-19
5.6372624e-12
-8.0016502e-19
5.6372621e-12
-1.1414115e-18
5.6372618e-12
-1.5205836e-18
5.6372613e-12
-1.8209728e-18
-1.8959317e-18
4.446268e-12
-7.9286526e-13
4.6796699e-12
-1.0692412e-12
4.7574606e-12
-8.2237938e-13
4.7562309e-12
-5.4094777e-13
4.7303307e-12
-3.266061e-13
4.7036733e-12
-1.8460941e-13
4.6837825e-12
-9.8644339e-14
4.6710569e-12
-4.9827903e-14
4.6637039e-12
-2.3544619e-14
4.6597991e-12
-1.0141136e-14
4.6578961e-12
-3.729677e-15
4.6570641e-12
-9.173051e-16
4.6567597e-12
1.5310008e-16
4.6566906e-12
4.4624557e-16
4.656711e-12
4.3440686e-16
4.6567548e-12
3.317141e-16
4.6567959e-12
2.2450915e-16
4.6568269e-12
1.4031924e-16
4.6568476e-12
8.2367176e-17
4.6568604e-12
4.5682057e-17
4.6568677e-12
2.3903927e-17
4.6568717e-12
1.1689748e-17
4.6568736e-12
5.2203258e-18
4.6568745e-12
2.0117562e-18
4.6568748e-12
5.5352605e-19
4.6568749e-12
-2.1650307e-20
4.6568749e-12
-1.8648172e-19
4.6568749e-12
-1.8314507e-19
4.6568749e-12
-1.2777101e-19
4.6568749e-12
-6.9370389e-20
4.6568749e-12
-2.5323388e-20
4.6568749e-12
2.3394381e-21
4.6568749e-12
1.6185609e-20
4.6568749e-12
2.0924156e-20
4.6568749e-12
1.9928196e-20
4.656875e-12
1.6462187e-20
4.656875e-12
1.1949257e-20
4.656875e-12
7.8852474e-21
4.656875e-12
4.3530887e-21
4.656875e-12
1.9189542e-21
4.656875e-12
1.1721679e-22
4.656875e-12
-7.846654e-22
4.656875e-12
-1.3724271e-21
4.656875e-12
-1.4052239e-21
4.656875e-12
-1.4218953e-21
4.656875e-12
-1.1164913e-21
4.656875e-12
-9.5992277e-22
4.656875e-12
-5.998936e-22
4.656875e-12
-4.5086372e-22
4.656875e-12
-1.3434297e-22
4.656875e-12
-3.089278e-23
4.656875e-12
2.2562787e-22
4.656875e-12
2.8375092e-22
4.656875e-12
4.890296e-22
4.656875e-12
5.1554819e-22
4.656875e-12
6.7277221e-22
4.656875e-12
6.6419783e-22
4.656875e-12
7.7285812e-22
4.656875e-12
7.2746828e-22
4.656875e-12
7.8554258e-22
4.656875e-12
6.9458778e-22
4.656875e-12
7.0628768e-22
4.656875e-12
5.6639362e-22
4.656875e-12
5.3237372e-22
4.656875e-12
3.3015405e-22
4.656875e-12
2.570179e-22
4.656875e-12
-1.5185141e-23
4.656875e-12
-1.2709248e-22
4.656875e-12
-4.7547136e-22
4.656875e-12
-5.9373792e-22
4.656875e-12
-9.8452198e-22
4.656875e-12
-1.0681313e-21
4.656875e-12
-1.4531275e-21
4.656875e-12
-1.4197959e-21
4.656875e-12
-1.7081268e-21
4.656875e-12
-1.4905113e-21
4.656875e-12
-1.6053111e-21
4.6568749e-12
-1.1086292e-21
4.6568749e-12
-9.2021329e-22
4.6568749e-12
-3.582435e-23
4.6568749e-12
6.176504e-22
4.6568749e-12
2.0839955e-21
4.6568749e-12
3.4683626e-21
4.6568749e-12
5.7225838e-21
4.656875e-12
7.9740859e-21
4.656875e-12
1.0863801e-20
4.656875e-12
1.3314152e-20
4.656875e-12
1.5109726e-20
4.656875e-12
1.4299794e-20
4.656875e-12
8.8038195e-21
4.656875e-12
-5.4469088e-21
4.656875e-12
-3.3901969e-20
4.6568749e-12
-8.4123565e-20
4.6568747e-12
-1.6520528e-19
4.6568745e-12
-2.868157e-19
4.6568742e-12
-4.5443341e-19
4.6568737e-12
-6.6488504e-19
4.6568731e-12
-9.0280612e-19
4.6568724e-12
-1.101206e-18
-1.2142947e-18
4.3380994e-12
-9.6429804e-13
4.1240954e-12
-8.5523721e-13
3.8161264e-12
-5.1441035e-13
3.5674689e-12
-2.9229032e-13
3.4004072e-12
-1.5954441e-13
3.2988265e-12
-8.3028722e-14
3.2414166e-12
-4.1234399e-14
3.2110054e-12
-1.9416743e-14
3.1959495e-12
-8.4887606e-15
3.1890909e-12
-3.2825117e-15
3.1863321e-12
-9.7085984e-16
3.1854688e-12
-5.4082184e-17
3.1853878e-12
2.3414807e-16
3.1855669e-12
2.6717439e-16
3.1857856e-12
2.1564001e-16
3.185967e-12
1.5036958e-16
3.1860956e-12
9.5925322e-17
3.1861786e-12
5.7270163e-17
3.1862287e-12
3.22936e-17
3.1862572e-12
1.7220645e-17
3.1862724e-12
8.6333551e-18
3.1862801e-12
4.0038966e-18
3.1862837e-12
1.6534041e-18
3.1862852e-12
5.4575418e-19
3.1862856e-12
7.7859431e-20
3.1862857e-12
-8.2953465e-20
3.1862856e-12
-1.104341e-19
3.1862855e-12
-8.9535299e-20
3.1862855e-12
-5.8341897e-20
3.1862854e-12
-3.142719e-20
3.1862854e-12
-1.266597e-20
3.1862854e-12
-1.4341846e-21
3.1862854e-12
4.1424987e-21
3.1862854e-12
6.0968592e-21
3.1862855e-12
5.9525072e-21
3.1862855e-12
4.8600026e-21
3.1862855e-12
3.45103e-21
3.1862855e-12
2.1513725e-21
3.1862855e-12
1.0783277e-21
3.1862855e-12
3.2735973e-22
3.1862855e-12
-1.7336907e-22
3.1862855e-12
-4.2930939e-22
3.1862855e-12
-5.505775e-22
3.1862855e-12
-5.4297405e-22
3.1862855e-12
-4.9657787e-22
3.1862855e-12
-3.9764567e-22
3.1862855e-12
-3.1429516e-22
3.1862855e-12
-2.1344855e-22
3.1862855e-12
-1.4293128e-22
3.1862855e-12
-6.3782573e-23
3.1862855e-12
-1.5252878e-23
3.1862855e-12
4.2042488e-23
3.1862855e-12
7.739283e-23
3.1862855e-12
1.2272929e-22
3.1862855e-12
1.5048835e-22
3.1862855e-12
1.8651785e-22
3.1862855e-12
2.0990833e-22
3.1862855e-12
2.3823518e-22
3.1862855e-12
2.5341086e-22
3.1862855e-12
2.7106113e-22
3.1862855e-12
2.7740762e-22
3.1862855e-12
2.847613e-22
3.1862855e-12
2.7536908e-22
3.1862855e-12
2.6860068e-22
3.1862855e-12
2.4168248e-22
3.1862855e-12
2.1965544e-22
3.1862855e-12
1.6285625e-22
3.1862855e-12
1.1897414e-22
3.1862855e-12
3.4178421e-23
3.1862855e-12
-2.3403854e-23
3.1862855e-12
-1.3523024e-22
3.1862855e-12
-1.9683175e-22
3.1862855e-12
-3.1004203e-22
3.1862855e-12
-3.4485248e-22
3.1862855e-12
-4.3737669e-22
3.1862855e-12
-4.2547597e-22
3.1862855e-12
-4.6329753e-22
3.1862855e-12
-3.7066189e-22
3.1862854e-12
-3.216537e-22
3.1862854e-12
-1.1705403e-22
3.1862854e-12
7.9119524e-23
3.1862854e-12
4.7294221e-22
3.1862854e-12
9.1785814e-22
3.1862854e-12
1.6053425e-21
3.1862854e-12
2.4105673e-21
3.1862855e-12
3.4513471e-21
3.1862855e-12
4.5496876e-21
3.1862855e-12
5.5832746e-21
3.1862855e-12
6.1047164e-21
3.1862855e-12
5.4066471e-21
3.1862855e-12
2.2860633e-21
3.1862855e-12
-5.1126651e-21
3.1862854e-12
-1.932347e-20
3.1862853e-12
-4.4044718e-20
3.1862851e-12
-8.2377364e-20
3.1862848e-12
-1.3685761e-19
3.1862844e-12
-2.1308662e-19
3.1862838e-12
-2.9716746e-19
3.1862831e-12
-3.7152991e-19
-5.1258743e-19
3.2023686e-12
2.3471314e-12
1.8327211e-12
1.5404308e-12
1.3808863e-12
1.2978576e-12
1.2566232e-12
1.2372065e-12
1.2287177e-12
1.2254352e-12
1.2244643e-12
1.2244102e-12
1.2246444e-12
1.2249116e-12
1.2251272e-12
1.2252776e-12
1.2253735e-12
1.2254308e-12
1.2254631e-12
1.2254803e-12
1.2254889e-12
1.2254929e-12
1.2254946e-12
1.2254951e-12
1.2254952e-12
1.2254951e-12
1.225495e-12
1.2254949e-12
1.2254949e-12
1.2254948e-12
1.2254948e-12
1.2254948e-12
1.2254948e-12
1.2254948e-12
1.2254948e-12
1.2254948e-12
1.2254948e-12
1.2254948e-12
1.2254948e-12
1.2254948e-12
1.2254948e-12
1.2254948e-12
1.2254948e-12
1.2254948e-12
1.2254948e-12
1.2254948e-12
1.2254948e-12
1.2254948e-12
1.2254948e-12
1.2254948e-12
1.2254948e-12
1.2254948e-12
1.2254948e-12
1.2254948e-12
1.2254948e-12
1.2254948e-12
1.2254948e-12
1.2254948e-12
1.2254948e-12
1.2254948e-12
1.2254948e-12
1.2254948e-12
1.2254949e-12
1.2254949e-12
1.2254949e-12
1.2254949e-12
1.2254949e-12
1.2254949e-12
1.2254949e-12
1.2254948e-12
1.2254948e-12
1.2254948e-12
1.2254948e-12
1.2254948e-12
1.2254948e-12
1.2254948e-12
1.2254948e-12
1.2254948e-12
1.2254948e-12
1.2254948e-12
1.2254948e-12
1.2254948e-12
1.2254948e-12
1.2254948e-12
1.2254948e-12
1.2254948e-12
1.2254948e-12
1.2254949e-12
1.2254949e-12
1.2254949e-12
1.2254949e-12
1.2254949e-12
1.2254949e-12
1.2254948e-12
1.2254947e-12
1.2254946e-12
1.2254944e-12
1.2254941e-12
1.2254937e-12
)
;

boundaryField
{
    inlet
    {
        type            calculated;
        value           nonuniform List<scalar> 10(-4.1666667e-12 -4.1666667e-12 -4.1666667e-12 -4.1666667e-12 -4.1666667e-12 -4.1666667e-12 -4.1666667e-12 -4.1666667e-12 -4.1666667e-12 -4.1666667e-12);
    }
    outlet
    {
        type            calculated;
        value           nonuniform List<scalar> 10(1.2254889e-12 3.1862697e-12 4.6568554e-12 5.6372474e-12 6.1274463e-12 6.1274516e-12 5.6372609e-12 4.6568718e-12 3.1862824e-12 1.2254932e-12);
    }
    walls
    {
        type            calculated;
        value           uniform 0;
    }
    frontAndBack
    {
        type            empty;
    }
}


// ************************************************************************* //
