/*--------------------------------*- C++ -*----------------------------------*\
| =========                 |                                                 |
| \\      /  F ield         | OpenFOAM: The Open Source CFD Toolbox           |
|  \\    /   O peration     | Version:  2406                                  |
|   \\  /    A nd           | Website:  www.openfoam.com                      |
|    \\/     M anipulation  |                                                 |
\*---------------------------------------------------------------------------*/
FoamFile
{
    version     2.0;
    format      ascii;
    arch        "LSB;label=32;scalar=64";
    class       volVectorField;
    location    "42";
    object      U;
}
// * * * * * * * * * * * * * * * * * * * * * * * * * * * * * * * * * * * * * //

dimensions      [0 1 -1 0 0 0 0];

internalField   nonuniform List<vector> 
1000
(
(0.0031840244 0.00048835535 0)
(0.0027249764 0.00042089371 0)
(0.0020756952 0.00020634345 0)
(0.0016542001 9.8756769e-05 0)
(0.0014397152 4.8796541e-05 0)
(0.001328249 2.2999968e-05 0)
(0.001271164 1.016684e-05 0)
(0.0012436725 4.1675838e-06 0)
(0.0012313281 1.4898745e-06 0)
(0.0012262978 3.7160382e-07 0)
(0.0012246028 -3.8704191e-08 0)
(0.0012242977 -1.4853323e-07 0)
(0.0012244803 -1.455223e-07 0)
(0.0012247676 -1.103359e-07 0)
(0.0012250204 -7.3973717e-08 0)
(0.0012252046 -4.5798884e-08 0)
(0.0012253256 -2.6658257e-08 0)
(0.0012253996 -1.4690421e-08 0)
(0.0012254423 -7.6654609e-09 0)
(0.0012254657 -3.7632201e-09 0)
(0.0012254779 -1.709861e-09 0)
(0.0012254839 -6.9163136e-10 0)
(0.0012254866 -2.224678e-10 0)
(0.0012254878 -2.7975457e-11 0)
(0.0012254881 3.8483293e-11 0)
(0.0012254882 5.0924101e-11 0)
(0.0012254881 4.4143482e-11 0)
(0.0012254881 3.3064144e-11 0)
(0.001225488 2.3099964e-11 0)
(0.0012254879 1.5616335e-11 0)
(0.0012254879 1.0409298e-11 0)
(0.0012254879 6.9253068e-12 0)
(0.0012254878 4.591784e-12 0)
(0.0012254878 3.027135e-12 0)
(0.0012254878 1.9408082e-12 0)
(0.0012254878 1.1909686e-12 0)
(0.0012254878 6.53404e-13 0)
(0.0012254878 2.890744e-13 0)
(0.0012254878 3.3625188e-14 0)
(0.0012254878 -1.1900188e-13 0)
(0.0012254878 -2.141717e-13 0)
(0.0012254878 -2.4549294e-13 0)
(0.0012254878 -2.5066652e-13 0)
(0.0012254878 -2.1768934e-13 0)
(0.0012254878 -1.8095395e-13 0)
(0.0012254878 -1.2561278e-13 0)
(0.0012254878 -8.3756044e-14 0)
(0.0012254878 -3.8773776e-14 0)
(0.0012254878 -1.9110912e-14 0)
(0.0012254878 -4.9670305e-15 0)
(0.0012254878 -1.878302e-14 0)
(0.0012254878 -3.7557607e-14 0)
(0.0012254878 -7.8246203e-14 0)
(0.0012254878 -1.1613554e-13 0)
(0.0012254878 -1.6463277e-13 0)
(0.0012254878 -2.0079096e-13 0)
(0.0012254878 -2.3811075e-13 0)
(0.0012254878 -2.5691699e-13 0)
(0.0012254878 -2.7119035e-13 0)
(0.0012254878 -2.6461846e-13 0)
(0.0012254878 -2.5335693e-13 0)
(0.0012254878 -2.2275465e-13 0)
(0.0012254878 -1.8959966e-13 0)
(0.0012254878 -1.3984297e-13 0)
(0.0012254878 -9.3460452e-14 0)
(0.0012254878 -3.4739036e-14 0)
(0.0012254878 1.4485422e-14 0)
(0.0012254878 7.2571788e-14 0)
(0.0012254878 1.1271449e-13 0)
(0.0012254878 1.6021715e-13 0)
(0.0012254878 1.845433e-13 0)
(0.0012254878 2.1812401e-13 0)
(0.0012254878 2.2451791e-13 0)
(0.0012254878 2.4541859e-13 0)
(0.0012254878 2.3758999e-13 0)
(0.0012254878 2.4771307e-13 0)
(0.0012254878 2.2686463e-13 0)
(0.0012254878 2.2635415e-13 0)
(0.0012254878 1.9270974e-13 0)
(0.0012254878 1.7922519e-13 0)
(0.0012254878 1.3600421e-13 0)
(0.0012254878 1.1943262e-13 0)
(0.0012254878 8.6801505e-14 0)
(0.0012254878 9.3848354e-14 0)
(0.0012254878 1.1390531e-13 0)
(0.0012254878 1.9467649e-13 0)
(0.0012254878 3.2321952e-13 0)
(0.0012254878 5.1856076e-13 0)
(0.0012254878 7.6321928e-13 0)
(0.0012254877 1.0016911e-12 0)
(0.0012254878 1.1646887e-12 0)
(0.0012254878 1.0770865e-12 0)
(0.0012254878 5.0212117e-13 0)
(0.0012254878 -7.2454453e-13 0)
(0.0012254878 -3.1951977e-12 0)
(0.0012254879 -8.8495567e-12 0)
(0.001225488 -1.6211926e-11 0)
(0.0012254882 -2.172682e-11 0)
(0.0012254884 -4.6014745e-11 0)
(0.0012254887 -1.2416338e-10 0)
(0.004226496 0.00098057267 0)
(0.004279911 0.0011361457 0)
(0.0039804058 0.00079002111 0)
(0.0036735843 0.0004811963 0)
(0.0034663716 0.00027344941 0)
(0.0033377423 0.00014705044 0)
(0.0032625398 7.5217413e-05 0)
(0.0032216778 3.6444191e-05 0)
(0.0032009602 1.6460366e-05 0)
(0.0031912063 6.6775247e-06 0)
(0.0031870651 2.1972641e-06 0)
(0.0031856033 3.3967573e-07 0)
(0.003185302 -3.0064719e-07 0)
(0.0031854275 -4.2592977e-07 0)
(0.0031856562 -3.6634206e-07 0)
(0.0031858649 -2.6426212e-07 0)
(0.0031860201 -1.7265268e-07 0)
(0.0031861237 -1.0522267e-07 0)
(0.003186188 -6.0607243e-08 0)
(0.0031862256 -3.3163176e-08 0)
(0.0031862466 -1.7234795e-08 0)
(0.0031862577 -8.4579505e-09 0)
(0.0031862634 -3.8628847e-09 0)
(0.003186266 -1.586505e-09 0)
(0.0031862672 -5.3100478e-10 0)
(0.0031862677 -8.3947433e-11 0)
(0.0031862678 7.8670577e-11 0)
(0.0031862678 1.1895119e-10 0)
(0.0031862677 1.1287718e-10 0)
(0.0031862676 9.3285593e-11 0)
(0.0031862676 7.272708e-11 0)
(0.0031862675 5.508554e-11 0)
(0.0031862675 4.0900295e-11 0)
(0.0031862674 2.9760238e-11 0)
(0.0031862674 2.1071423e-11 0)
(0.0031862674 1.4376933e-11 0)
(0.0031862674 9.2886278e-12 0)
(0.0031862674 5.5348699e-12 0)
(0.0031862674 2.8511282e-12 0)
(0.0031862674 1.0378773e-12 0)
(0.0031862674 -1.1900046e-13 0)
(0.0031862674 -7.7178465e-13 0)
(0.0031862674 -1.0787352e-12 0)
(0.0031862674 -1.1354864e-12 0)
(0.0031862674 -1.0495928e-12 0)
(0.0031862674 -8.7139763e-13 0)
(0.0031862674 -6.6675117e-13 0)
(0.0031862674 -4.5171209e-13 0)
(0.0031862674 -2.6761501e-13 0)
(0.0031862674 -1.139555e-13 0)
(0.0031862674 -1.2230352e-14 0)
(0.0031862674 5.2106214e-14 0)
(0.0031862674 7.0105151e-14 0)
(0.0031862674 5.7584134e-14 0)
(0.0031862674 1.517316e-14 0)
(0.0031862674 -4.13529e-14 0)
(0.0031862674 -1.0870441e-13 0)
(0.0031862674 -1.7911158e-13 0)
(0.0031862674 -2.4687091e-13 0)
(0.0031862674 -3.0965376e-13 0)
(0.0031862674 -3.6439205e-13 0)
(0.0031862674 -4.1395001e-13 0)
(0.0031862674 -4.5613691e-13 0)
(0.0031862674 -4.9936264e-13 0)
(0.0031862674 -5.5124208e-13 0)
(0.0031862674 -6.1650671e-13 0)
(0.0031862674 -7.0432048e-13 0)
(0.0031862674 -8.1432195e-13 0)
(0.0031862674 -9.6568813e-13 0)
(0.0031862674 -1.1324735e-12 0)
(0.0031862674 -1.3292696e-12 0)
(0.0031862674 -1.5074107e-12 0)
(0.0031862674 -1.6949443e-12 0)
(0.0031862674 -1.8159599e-12 0)
(0.0031862674 -1.907326e-12 0)
(0.0031862674 -1.8808133e-12 0)
(0.0031862673 -1.8006503e-12 0)
(0.0031862673 -1.570396e-12 0)
(0.0031862673 -1.261666e-12 0)
(0.0031862673 -7.6082483e-13 0)
(0.0031862673 -1.3874484e-13 0)
(0.0031862673 7.258455e-13 0)
(0.0031862673 1.7755035e-12 0)
(0.0031862673 3.1282285e-12 0)
(0.0031862673 4.697825e-12 0)
(0.0031862673 6.4667317e-12 0)
(0.0031862673 8.1718389e-12 0)
(0.0031862673 9.4433713e-12 0)
(0.0031862673 9.5467469e-12 0)
(0.0031862673 7.3391684e-12 0)
(0.0031862673 1.2058246e-12 0)
(0.0031862673 -1.1099137e-11 0)
(0.0031862674 -3.2180029e-11 0)
(0.0031862675 -6.4874768e-11 0)
(0.0031862676 -1.1206355e-10 0)
(0.0031862678 -1.7602188e-10 0)
(0.0031862681 -2.5506567e-10 0)
(0.0031862685 -3.4650658e-10 0)
(0.0031862689 -4.4636044e-10 0)
(0.0031862696 -5.8923893e-10 0)
(0.0042649488 0.00069906836 0)
(0.0046028189 0.0010238585 0)
(0.0047455356 0.00086048912 0)
(0.0047665351 0.00060291163 0)
(0.0047453525 0.00038072201 0)
(0.0047163084 0.0002228784 0)
(0.0046922799 0.00012262471 0)
(0.0046761192 6.3602638e-05 0)
(0.0046664716 3.0889757e-05 0)
(0.0046611882 1.3771917e-05 0)
(0.0046585228 5.3653753e-06 0)
(0.0046573013 1.5567961e-06 0)
(0.0046568146 3.0505157e-08 0)
(0.0046566697 -4.4616501e-07 0)
(0.0046566648 -4.9146699e-07 0)
(0.004656705 -3.9378445e-07 0)
(0.0046567502 -2.7435945e-07 0)
(0.0046567868 -1.7541987e-07 0)
(0.0046568127 -1.052791e-07 0)
(0.0046568295 -5.9929687e-08 0)
(0.0046568397 -3.249059e-08 0)
(0.0046568457 -1.6767278e-08 0)
(0.0046568491 -8.1900294e-09 0)
(0.0046568509 -3.731766e-09 0)
(0.0046568519 -1.530409e-09 0)
(0.0046568524 -5.064506e-10 0)
(0.0046568526 -6.6277828e-11 0)
(0.0046568527 1.0020418e-10 0)
(0.0046568527 1.4662498e-10 0)
(0.0046568527 1.4482709e-10 0)
(0.0046568527 1.2629436e-10 0)
(0.0046568526 1.0381909e-10 0)
(0.0046568526 8.2154045e-11 0)
(0.0046568526 6.2884998e-11 0)
(0.0046568525 4.6449533e-11 0)
(0.0046568525 3.2885526e-11 0)
(0.0046568525 2.205698e-11 0)
(0.0046568525 1.3733702e-11 0)
(0.0046568525 7.6100303e-12 0)
(0.0046568525 3.3365763e-12 0)
(0.0046568525 5.4459992e-13 0)
(0.0046568525 -1.1120276e-12 0)
(0.0046568525 -1.941044e-12 0)
(0.0046568525 -2.2008542e-12 0)
(0.0046568525 -2.1023245e-12 0)
(0.0046568525 -1.8029543e-12 0)
(0.0046568525 -1.4161478e-12 0)
(0.0046568525 -1.0209536e-12 0)
(0.0046568525 -6.7263104e-13 0)
(0.0046568525 -4.0029134e-13 0)
(0.0046568525 -2.1455377e-13 0)
(0.0046568525 -1.1365671e-13 0)
(0.0046568525 -9.0481024e-14 0)
(0.0046568525 -1.2944979e-13 0)
(0.0046568525 -2.1051651e-13 0)
(0.0046568525 -3.1653553e-13 0)
(0.0046568525 -4.3223577e-13 0)
(0.0046568525 -5.4659178e-13 0)
(0.0046568525 -6.453859e-13 0)
(0.0046568525 -7.2683914e-13 0)
(0.0046568525 -7.8517014e-13 0)
(0.0046568525 -8.2616223e-13 0)
(0.0046568525 -8.4505367e-13 0)
(0.0046568525 -8.5715942e-13 0)
(0.0046568525 -8.6518544e-13 0)
(0.0046568525 -8.8693125e-13 0)
(0.0046568525 -9.2051879e-13 0)
(0.0046568525 -9.839079e-13 0)
(0.0046568525 -1.075455e-12 0)
(0.0046568525 -1.199616e-12 0)
(0.0046568525 -1.3367493e-12 0)
(0.0046568525 -1.4753502e-12 0)
(0.0046568525 -1.5969443e-12 0)
(0.0046568525 -1.6746354e-12 0)
(0.0046568525 -1.6811625e-12 0)
(0.0046568525 -1.5792601e-12 0)
(0.0046568525 -1.3602045e-12 0)
(0.0046568525 -9.7567258e-13 0)
(0.0046568524 -4.0524674e-13 0)
(0.0046568524 4.262168e-13 0)
(0.0046568524 1.5377954e-12 0)
(0.0046568524 3.0255003e-12 0)
(0.0046568524 4.9091985e-12 0)
(0.0046568524 7.2468713e-12 0)
(0.0046568524 9.9093126e-12 0)
(0.0046568524 1.2676409e-11 0)
(0.0046568524 1.4926536e-11 0)
(0.0046568524 1.5634758e-11 0)
(0.0046568524 1.2969642e-11 0)
(0.0046568524 4.2210953e-12 0)
(0.0046568524 -1.456034e-11 0)
(0.0046568525 -4.8464948e-11 0)
(0.0046568525 -1.0366259e-10 0)
(0.0046568527 -1.867133e-10 0)
(0.0046568528 -3.0310723e-10 0)
(0.0046568531 -4.5522344e-10 0)
(0.0046568534 -6.395174e-10 0)
(0.0046568539 -8.3287051e-10 0)
(0.0046568544 -1.0136901e-09 0)
(0.0046568553 -1.150705e-09 0)
(0.0042398156 0.0003803725 0)
(0.0046367776 0.00065716669 0)
(0.0050098727 0.0006229948 0)
(0.0052778514 0.00047624078 0)
(0.0054444042 0.00032114715 0)
(0.0055397416 0.00019807684 0)
(0.0055911428 0.00011379971 0)
(0.00561734 6.1328327e-05 0)
(0.005629864 3.0930235e-05 0)
(0.0056353626 1.4407867e-05 0)
(0.0056374673 5.9910452e-06 0)
(0.0056380578 2.0159593e-06 0)
(0.0056380518 3.2530053e-07 0)
(0.005637865 -2.7248743e-07 0)
(0.0056376656 -3.9594743e-07 0)
(0.0056375079 -3.4461469e-07 0)
(0.0056373991 -2.5090955e-07 0)
(0.0056373301 -1.6538431e-07 0)
(0.0056372892 -1.017787e-07 0)
(0.0056372663 -5.9338794e-08 0)
(0.0056372542 -3.3012804e-08 0)
(0.0056372482 -1.7577714e-08 0)
(0.0056372456 -8.9507962e-09 0)
(0.0056372445 -4.3335314e-09 0)
(0.0056372443 -1.9618677e-09 0)
(0.0056372443 -7.9246012e-10 0)
(0.0056372444 -2.4043444e-10 0)
(0.0056372446 6.271476e-12 0)
(0.0056372446 1.0687519e-10 0)
(0.0056372447 1.3913934e-10 0)
(0.0056372447 1.4001714e-10 0)
(0.0056372447 1.2668493e-10 0)
(0.0056372447 1.0752056e-10 0)
(0.0056372447 8.6697656e-11 0)
(0.0056372447 6.6681826e-11 0)
(0.0056372447 4.8738627e-11 0)
(0.0056372447 3.3656256e-11 0)
(0.0056372447 2.1573058e-11 0)
(0.0056372446 1.2469857e-11 0)
(0.0056372446 5.932358e-12 0)
(0.0056372446 1.6067547e-12 0)
(0.0056372446 -1.0628882e-12 0)
(0.0056372446 -2.4339227e-12 0)
(0.0056372446 -2.9763635e-12 0)
(0.0056372446 -2.9191292e-12 0)
(0.0056372446 -2.5844515e-12 0)
(0.0056372446 -2.0602037e-12 0)
(0.0056372446 -1.5475822e-12 0)
(0.0056372446 -1.0398953e-12 0)
(0.0056372446 -6.6008463e-13 0)
(0.0056372446 -3.4415287e-13 0)
(0.0056372446 -1.7121276e-13 0)
(0.0056372446 -5.4877833e-14 0)
(0.0056372446 -5.2158567e-14 0)
(0.0056372446 -7.1745959e-14 0)
(0.0056372446 -1.625027e-13 0)
(0.0056372446 -2.4351099e-13 0)
(0.0056372446 -3.6157043e-13 0)
(0.0056372446 -4.4842419e-13 0)
(0.0056372446 -5.5151546e-13 0)
(0.0056372446 -6.1699534e-13 0)
(0.0056372447 -6.9318891e-13 0)
(0.0056372447 -7.3593809e-13 0)
(0.0056372447 -7.9837904e-13 0)
(0.0056372447 -8.4309953e-13 0)
(0.0056372447 -9.2716903e-13 0)
(0.0056372447 -1.0057919e-12 0)
(0.0056372446 -1.1436411e-12 0)
(0.0056372446 -1.2798376e-12 0)
(0.0056372446 -1.4814076e-12 0)
(0.0056372446 -1.6480466e-12 0)
(0.0056372446 -1.8573112e-12 0)
(0.0056372446 -1.9746194e-12 0)
(0.0056372446 -2.0925759e-12 0)
(0.0056372446 -2.0302619e-12 0)
(0.0056372446 -1.9078365e-12 0)
(0.0056372446 -1.5136405e-12 0)
(0.0056372446 -9.8553202e-13 0)
(0.0056372446 -5.8600303e-14 0)
(0.0056372446 1.1261157e-12 0)
(0.0056372446 2.8724643e-12 0)
(0.0056372446 5.0382781e-12 0)
(0.0056372446 7.9205673e-12 0)
(0.0056372446 1.1276489e-11 0)
(0.0056372446 1.5154669e-11 0)
(0.0056372446 1.8856897e-11 0)
(0.0056372446 2.1590833e-11 0)
(0.0056372446 2.1379661e-11 0)
(0.0056372446 1.5441025e-11 0)
(0.0056372446 -8.7282479e-13 0)
(0.0056372446 -3.384034e-11 0)
(0.0056372446 -9.193691e-11 0)
(0.0056372447 -1.852188e-10 0)
(0.0056372448 -3.2465175e-10 0)
(0.005637245 -5.1880169e-10 0)
(0.0056372452 -7.7092615e-10 0)
(0.0056372455 -1.0731311e-09 0)
(0.005637246 -1.3826758e-09 0)
(0.0056372465 -1.6497473e-09 0)
(0.0056372473 -1.757386e-09 0)
(0.0042267119 0.00012137297 0)
(0.0046213068 0.00022434925 0)
(0.0050802368 0.00022396967 0)
(0.0054679659 0.00017805795 0)
(0.005741689 0.00012381903 0)
(0.0059159977 7.8291841e-05 0)
(0.0060190029 4.5917212e-05 0)
(0.0060759598 2.5194439e-05 0)
(0.0061054495 1.292787e-05 0)
(0.0061196331 6.1391425e-06 0)
(0.0061258188 2.6220767e-06 0)
(0.0061281102 9.3041322e-07 0)
(0.0061286711 1.9306834e-07 0)
(0.0061285676 -7.9778235e-08 0)
(0.0061282814 -1.464734e-07 0)
(0.0061280033 -1.3418519e-07 0)
(0.0061277908 -1.0028865e-07 0)
(0.0061276466 -6.7430548e-08 0)
(0.0061275562 -4.2346473e-08 0)
(0.006127503 -2.5323405e-08 0)
(0.0061274733 -1.4599357e-08 0)
(0.0061274576 -8.1902756e-09 0)
(0.0061274499 -4.5036674e-09 0)
(0.0061274463 -2.4364441e-09 0)
(0.0061274448 -1.2912345e-09 0)
(0.0061274444 -6.5566605e-10 0)
(0.0061274443 -2.9858286e-10 0)
(0.0061274444 -9.5455045e-11 0)
(0.0061274445 1.9287181e-11 0)
(0.0061274446 8.0585776e-11 0)
(0.0061274446 1.0805465e-10 0)
(0.0061274447 1.1388137e-10 0)
(0.0061274447 1.0634227e-10 0)
(0.0061274447 9.1451642e-11 0)
(0.0061274447 7.3508671e-11 0)
(0.0061274447 5.5500429e-11 0)
(0.0061274447 3.9243119e-11 0)
(0.0061274447 2.57061e-11 0)
(0.0061274447 1.5161071e-11 0)
(0.0061274447 7.4914968e-12 0)
(0.0061274447 2.2867173e-12 0)
(0.0061274447 -9.2206856e-13 0)
(0.0061274447 -2.6555916e-12 0)
(0.0061274447 -3.3356916e-12 0)
(0.0061274447 -3.3553904e-12 0)
(0.0061274447 -2.974642e-12 0)
(0.0061274447 -2.4218823e-12 0)
(0.0061274447 -1.8095356e-12 0)
(0.0061274447 -1.249173e-12 0)
(0.0061274447 -7.6406825e-13 0)
(0.0061274447 -3.9851801e-13 0)
(0.0061274447 -1.2657147e-13 0)
(0.0061274447 3.5290874e-14 0)
(0.0061274447 1.2867019e-13 0)
(0.0061274447 1.4424362e-13 0)
(0.0061274447 1.2954659e-13 0)
(0.0061274447 6.9635412e-14 0)
(0.0061274447 7.0422978e-15 0)
(0.0061274447 -8.1296739e-14 0)
(0.0061274447 -1.540099e-13 0)
(0.0061274447 -2.4377141e-13 0)
(0.0061274447 -3.1414149e-13 0)
(0.0061274447 -4.0522353e-13 0)
(0.0061274447 -4.8271444e-13 0)
(0.0061274447 -5.9343192e-13 0)
(0.0061274447 -7.05057e-13 0)
(0.0061274447 -8.6179279e-13 0)
(0.0061274447 -1.0305024e-12 0)
(0.0061274447 -1.2465077e-12 0)
(0.0061274447 -1.4691452e-12 0)
(0.0061274447 -1.7083856e-12 0)
(0.0061274447 -1.9197024e-12 0)
(0.0061274447 -2.091638e-12 0)
(0.0061274447 -2.179149e-12 0)
(0.0061274447 -2.1417955e-12 0)
(0.0061274447 -1.9413326e-12 0)
(0.0061274447 -1.5154551e-12 0)
(0.0061274446 -8.2639063e-13 0)
(0.0061274446 2.3078202e-13 0)
(0.0061274446 1.7104445e-12 0)
(0.0061274446 3.7549857e-12 0)
(0.0061274446 6.4158967e-12 0)
(0.0061274446 9.8130973e-12 0)
(0.0061274446 1.3869059e-11 0)
(0.0061274446 1.8399196e-11 0)
(0.0061274446 2.2730099e-11 0)
(0.0061274446 2.5639258e-11 0)
(0.0061274446 2.4821958e-11 0)
(0.0061274446 1.6551955e-11 0)
(0.0061274446 -4.9432519e-12 0)
(0.0061274446 -4.7911086e-11 0)
(0.0061274447 -1.2332939e-10 0)
(0.0061274447 -2.4465662e-10 0)
(0.0061274448 -4.2659931e-10 0)
(0.0061274449 -6.8167108e-10 0)
(0.006127445 -1.014288e-09 0)
(0.0061274452 -1.4101661e-09 0)
(0.0061274454 -1.8274805e-09 0)
(0.0061274458 -2.1649646e-09 0)
(0.0061274463 -2.2395543e-09 0)
(0.0042267119 -0.00012137298 0)
(0.0046213068 -0.00022434899 0)
(0.0050802369 -0.00022396876 0)
(0.0054679661 -0.00017805599 0)
(0.0057416895 -0.00012381567 0)
(0.0059159986 -7.8286856e-05 0)
(0.0060190044 -4.5910558e-05 0)
(0.0060759619 -2.5186279e-05 0)
(0.0061054525 -1.2918572e-05 0)
(0.0061196369 -6.1292399e-06 0)
(0.0061258235 -2.6121987e-06 0)
(0.0061281158 -9.2119604e-07 0)
(0.0061286776 -1.8506886e-07 0)
(0.0061285747 8.6154419e-08 0)
(0.006128289 1.5101291e-07 0)
(0.0061280113 1.3687579e-07 0)
(0.0061277989 1.0129541e-07 0)
(0.0061276548 6.7050358e-08 0)
(0.0061275644 4.0950148e-08 0)
(0.006127511 2.3298619e-08 0)
(0.0061274812 1.2302127e-08 0)
(0.0061274653 5.9118339e-09 0)
(0.0061274573 2.4532447e-09 0)
(0.0061274536 7.3957022e-10 0)
(0.006127452 -1.2088203e-12 0)
(0.0061274514 -2.3954564e-10 0)
(0.0061274513 -2.4622311e-10 0)
(0.0061274513 -1.6703299e-10 0)
(0.0061274514 -7.4324355e-11 0)
(0.0061274515 1.4171374e-12 0)
(0.0061274516 5.1161404e-11 0)
(0.0061274516 7.6726095e-11 0)
(0.0061274517 8.3542074e-11 0)
(0.0061274517 7.8215615e-11 0)
(0.0061274517 6.607997e-11 0)
(0.0061274517 5.1540496e-11 0)
(0.0061274517 3.7139365e-11 0)
(0.0061274517 2.4675964e-11 0)
(0.0061274517 1.4617952e-11 0)
(0.0061274517 7.2738909e-12 0)
(0.0061274517 2.1656548e-12 0)
(0.0061274517 -9.2025934e-13 0)
(0.0061274517 -2.6591508e-12 0)
(0.0061274517 -3.2714446e-12 0)
(0.0061274517 -3.3285082e-12 0)
(0.0061274517 -2.9029971e-12 0)
(0.0061274517 -2.3990891e-12 0)
(0.0061274517 -1.7456431e-12 0)
(0.0061274517 -1.2280516e-12 0)
(0.0061274517 -6.9388687e-13 0)
(0.0061274517 -3.5153058e-13 0)
(0.0061274517 -1.2772993e-14 0)
(0.0061274517 1.4978514e-13 0)
(0.0061274517 3.1982342e-13 0)
(0.0061274517 3.5221665e-13 0)
(0.0061274517 4.1392425e-13 0)
(0.0061274517 3.7456985e-13 0)
(0.0061274517 3.7205797e-13 0)
(0.0061274517 2.9567652e-13 0)
(0.0061274517 2.6094945e-13 0)
(0.0061274517 1.6761336e-13 0)
(0.0061274517 1.1078237e-13 0)
(0.0061274517 -2.367949e-15 0)
(0.0061274517 -8.2356885e-14 0)
(0.0061274517 -2.3158781e-13 0)
(0.0061274517 -3.4889779e-13 0)
(0.0061274517 -5.5803685e-13 0)
(0.0061274517 -7.1921836e-13 0)
(0.0061274517 -9.9862048e-13 0)
(0.0061274517 -1.1853673e-12 0)
(0.0061274517 -1.5012837e-12 0)
(0.0061274517 -1.6414236e-12 0)
(0.0061274517 -1.909815e-12 0)
(0.0061274517 -1.8924731e-12 0)
(0.0061274517 -1.9795267e-12 0)
(0.0061274517 -1.6451073e-12 0)
(0.0061274517 -1.3735263e-12 0)
(0.0061274517 -5.2888133e-13 0)
(0.0061274517 3.5196004e-13 0)
(0.0061274517 2.0119486e-12 0)
(0.0061274517 3.8783311e-12 0)
(0.0061274517 6.7418479e-12 0)
(0.0061274517 9.9933996e-12 0)
(0.0061274517 1.4295278e-11 0)
(0.0061274517 1.8763762e-11 0)
(0.0061274517 2.3392068e-11 0)
(0.0061274517 2.6350601e-11 0)
(0.0061274517 2.5808919e-11 0)
(0.0061274517 1.7458032e-11 0)
(0.0061274517 -4.4327955e-12 0)
(0.0061274517 -4.8922428e-11 0)
(0.0061274517 -1.2785541e-10 0)
(0.0061274517 -2.5631986e-10 0)
(0.0061274517 -4.5119409e-10 0)
(0.0061274517 -7.2752411e-10 0)
(0.0061274516 -1.0914256e-09 0)
(0.0061274516 -1.5288309e-09 0)
(0.0061274516 -1.996981e-09 0)
(0.0061274516 -2.3670732e-09 0)
(0.0061274516 -2.4220743e-09 0)
(0.0042398156 -0.00038037253 0)
(0.0046367776 -0.00065716651 0)
(0.0050098729 -0.00062299411 0)
(0.005277852 -0.00047623923 0)
(0.0054444055 -0.00032114445 0)
(0.005539744 -0.0001980728 0)
(0.0055911466 -0.00011379429 0)
(0.0056173455 -6.1321662e-05 0)
(0.0056298717 -3.0922628e-05 0)
(0.0056353727 -1.4399761e-05 0)
(0.0056374798 -5.9829631e-06 0)
(0.0056380726 -2.0084292e-06 0)
(0.0056380686 -3.18782e-07 0)
(0.0056378836 2.7766104e-07 0)
(0.0056376856 3.9960394e-07 0)
(0.0056375289 3.4674825e-07 0)
(0.0056374205 2.5166126e-07 0)
(0.0056373517 1.6500292e-07 0)
(0.0056373106 1.0057302e-07 0)
(0.0056372873 5.7629725e-08 0)
(0.0056372747 3.1093854e-08 0)
(0.0056372682 1.568744e-08 0)
(0.005637265 7.2594807e-09 0)
(0.0056372636 2.9417122e-09 0)
(0.005637263 9.087669e-10 0)
(0.0056372627 6.9370714e-11 0)
(0.0056372627 -1.9319087e-10 0)
(0.0056372627 -2.0830129e-10 0)
(0.0056372627 -1.3979594e-10 0)
(0.0056372628 -6.1665458e-11 0)
(0.0056372628 -1.3118517e-12 0)
(0.0056372628 3.546775e-11 0)
(0.0056372629 5.2194807e-11 0)
(0.0056372629 5.4718625e-11 0)
(0.0056372629 4.8956396e-11 0)
(0.0056372629 3.9237884e-11 0)
(0.005637263 2.8735949e-11 0)
(0.005637263 1.9082064e-11 0)
(0.005637263 1.1270254e-11 0)
(0.005637263 5.3815435e-12 0)
(0.005637263 1.4168474e-12 0)
(0.005637263 -1.0816077e-12 0)
(0.005637263 -2.3393235e-12 0)
(0.005637263 -2.8476716e-12 0)
(0.005637263 -2.7636821e-12 0)
(0.005637263 -2.4523428e-12 0)
(0.005637263 -1.9335267e-12 0)
(0.005637263 -1.450194e-12 0)
(0.005637263 -9.3397409e-13 0)
(0.005637263 -5.4800505e-13 0)
(0.005637263 -1.7290654e-13 0)
(0.005637263 6.8484531e-14 0)
(0.005637263 2.9928158e-13 0)
(0.005637263 4.1690826e-13 0)
(0.005637263 5.4113027e-13 0)
(0.005637263 5.7978671e-13 0)
(0.005637263 6.3255608e-13 0)
(0.005637263 6.1560255e-13 0)
(0.005637263 6.1962831e-13 0)
(0.005637263 5.6654674e-13 0)
(0.005637263 5.3413731e-13 0)
(0.005637263 4.4562881e-13 0)
(0.005637263 3.8031577e-13 0)
(0.005637263 2.5390038e-13 0)
(0.005637263 1.5096532e-13 0)
(0.005637263 -2.8550474e-14 0)
(0.005637263 -1.7413833e-13 0)
(0.005637263 -4.1301756e-13 0)
(0.005637263 -5.9672947e-13 0)
(0.005637263 -8.8281863e-13 0)
(0.005637263 -1.0623262e-12 0)
(0.005637263 -1.3363261e-12 0)
(0.005637263 -1.4384377e-12 0)
(0.005637263 -1.6115016e-12 0)
(0.0056372629 -1.5202769e-12 0)
(0.0056372629 -1.4558555e-12 0)
(0.0056372629 -1.0343229e-12 0)
(0.0056372629 -5.6834764e-13 0)
(0.0056372629 3.9362826e-13 0)
(0.0056372629 1.5379258e-12 0)
(0.0056372629 3.3470674e-12 0)
(0.0056372629 5.5304711e-12 0)
(0.0056372629 8.5579306e-12 0)
(0.0056372629 1.2074838e-11 0)
(0.0056372629 1.6261508e-11 0)
(0.0056372629 2.034697e-11 0)
(0.0056372629 2.3588995e-11 0)
(0.0056372629 2.3849939e-11 0)
(0.005637263 1.802417e-11 0)
(0.005637263 7.5721359e-13 0)
(0.005637263 -3.5637943e-11 0)
(0.0056372629 -1.0204354e-10 0)
(0.0056372629 -2.1246971e-10 0)
(0.0056372628 -3.8285233e-10 0)
(0.0056372627 -6.2871616e-10 0)
(0.0056372625 -9.5708744e-10 0)
(0.0056372623 -1.3568041e-09 0)
(0.005637262 -1.7908989e-09 0)
(0.0056372616 -2.1351553e-09 0)
(0.005637261 -2.1966213e-09 0)
(0.0042649488 -0.00069906841 0)
(0.0046028189 -0.0010238584 0)
(0.0047455358 -0.00086048876 0)
(0.0047665357 -0.00060291073 0)
(0.004745354 -0.00038072038 0)
(0.0047163111 -0.00022287591 0)
(0.0046922844 -0.00012262132 0)
(0.0046761261 -6.3598441e-05 0)
(0.0046664811 -3.0884947e-05 0)
(0.0046612007 -1.3766785e-05 0)
(0.0046585383 -5.3602617e-06 0)
(0.0046573197 -1.5520444e-06 0)
(0.0046568357 -2.6412346e-08 0)
(0.004656693 4.493858e-07 0)
(0.0046566898 4.9370884e-07 0)
(0.004656731 3.9504885e-07 0)
(0.0046567768 2.7474294e-07 0)
(0.0046568135 1.7508756e-07 0)
(0.0046568391 1.0443342e-07 0)
(0.0046568554 5.8778952e-08 0)
(0.004656865 3.1223627e-08 0)
(0.0046568703 1.5535842e-08 0)
(0.004656873 7.1007808e-09 0)
(0.0046568742 2.845792e-09 0)
(0.0046568748 8.6925667e-10 0)
(0.0046568749 6.1105391e-11 0)
(0.0046568749 -1.9212271e-10 0)
(0.0046568749 -2.1096309e-10 0)
(0.0046568749 -1.5122129e-10 0)
(0.0046568749 -8.1684361e-11 0)
(0.0046568749 -2.7115725e-11 0)
(0.0046568749 7.3319853e-12 0)
(0.0046568749 2.4825687e-11 0)
(0.0046568749 3.0267042e-11 0)
(0.0046568749 2.8657487e-11 0)
(0.004656875 2.3439433e-11 0)
(0.004656875 1.7252393e-11 0)
(0.004656875 1.1312702e-11 0)
(0.004656875 6.5097953e-12 0)
(0.004656875 2.8474675e-12 0)
(0.004656875 4.5719083e-13 0)
(0.004656875 -1.0559189e-12 0)
(0.004656875 -1.7350267e-12 0)
(0.004656875 -2.0051066e-12 0)
(0.004656875 -1.8623427e-12 0)
(0.004656875 -1.6402178e-12 0)
(0.004656875 -1.246058e-12 0)
(0.004656875 -9.3548931e-13 0)
(0.004656875 -5.5728911e-13 0)
(0.004656875 -3.1040447e-13 0)
(0.004656875 -1.7544453e-14 0)
(0.004656875 1.4501127e-13 0)
(0.004656875 3.512347e-13 0)
(0.004656875 4.4503249e-13 0)
(0.004656875 5.8715322e-13 0)
(0.004656875 6.3167114e-13 0)
(0.004656875 7.1817496e-13 0)
(0.004656875 7.1964577e-13 0)
(0.004656875 7.5894684e-13 0)
(0.004656875 7.210786e-13 0)
(0.004656875 7.1362036e-13 0)
(0.004656875 6.348519e-13 0)
(0.004656875 5.8561716e-13 0)
(0.004656875 4.6190029e-13 0)
(0.004656875 3.6825191e-13 0)
(0.004656875 1.9183513e-13 0)
(0.004656875 5.7582423e-14 0)
(0.004656875 -1.7835465e-13 0)
(0.004656875 -3.4653094e-13 0)
(0.004656875 -6.2696696e-13 0)
(0.004656875 -7.8674794e-13 0)
(0.004656875 -1.0711967e-12 0)
(0.004656875 -1.1668204e-12 0)
(0.004656875 -1.3817244e-12 0)
(0.004656875 -1.3189253e-12 0)
(0.004656875 -1.3732961e-12 0)
(0.004656875 -1.0636307e-12 0)
(0.004656875 -8.3740014e-13 0)
(0.0046568749 -1.315948e-13 0)
(0.0046568749 5.586671e-13 0)
(0.0046568749 1.8624483e-12 0)
(0.0046568749 3.2913469e-12 0)
(0.0046568749 5.4933664e-12 0)
(0.0046568749 7.9417537e-12 0)
(0.0046568749 1.1122569e-11 0)
(0.004656875 1.4293686e-11 0)
(0.004656875 1.7333112e-11 0)
(0.004656875 1.8657513e-11 0)
(0.004656875 1.6514017e-11 0)
(0.004656875 7.1833418e-12 0)
(0.004656875 -1.4416549e-11 0)
(0.004656875 -5.6041841e-11 0)
(0.0046568749 -1.2775382e-10 0)
(0.0046568748 -2.4154557e-10 0)
(0.0046568747 -4.0993836e-10 0)
(0.0046568744 -6.3909603e-10 0)
(0.004656874 -9.231341e-10 0)
(0.0046568735 -1.241295e-09 0)
(0.0046568728 -1.4968111e-09 0)
(0.0046568719 -1.5955544e-09 0)
(0.004226496 -0.00098057273 0)
(0.0042799109 -0.0011361457 0)
(0.0039804058 -0.00079002103 0)
(0.0036735847 -0.000481196 0)
(0.0034663726 -0.00027344879 0)
(0.0033377443 -0.00014704945 0)
(0.0032625433 -7.5216024e-05 0)
(0.0032216832 -3.6442442e-05 0)
(0.0032009678 -1.6458348e-05 0)
(0.0031912164 -6.6753652e-06 0)
(0.0031870778 -2.1951158e-06 0)
(0.0031856184 -3.3769006e-07 0)
(0.0031853193 3.0234045e-07 0)
(0.0031854466 4.2723987e-07 0)
(0.0031856767 3.6722578e-07 0)
(0.0031858863 2.6472467e-07 0)
(0.003186042 1.7274052e-07 0)
(0.0031861456 1.050116e-07 0)
(0.0031862095 6.0187856e-08 0)
(0.0031862467 3.2627175e-08 0)
(0.003186267 1.6663694e-08 0)
(0.0031862775 7.9159386e-09 0)
(0.0031862826 3.3935127e-09 0)
(0.0031862848 1.213228e-09 0)
(0.0031862856 2.599658e-10 0)
(0.0031862857 -9.1452358e-11 0)
(0.0031862857 -1.7325575e-10 0)
(0.0031862856 -1.5120557e-10 0)
(0.0031862855 -1.0179581e-10 0)
(0.0031862854 -5.5754328e-11 0)
(0.0031862854 -2.2540274e-11 0)
(0.0031862854 -2.2037678e-12 0)
(0.0031862854 8.0442283e-12 0)
(0.0031862854 1.1715254e-11 0)
(0.0031862855 1.1472914e-11 0)
(0.0031862855 9.4534103e-12 0)
(0.0031862855 6.7904312e-12 0)
(0.0031862855 4.3289882e-12 0)
(0.0031862855 2.263801e-12 0)
(0.0031862855 8.1554452e-13 0)
(0.0031862855 -1.8045736e-13 0)
(0.0031862855 -6.9284912e-13 0)
(0.0031862855 -9.6023268e-13 0)
(0.0031862855 -9.6154974e-13 0)
(0.0031862855 -9.0126719e-13 0)
(0.0031862855 -7.1650616e-13 0)
(0.0031862855 -5.6900821e-13 0)
(0.0031862855 -3.6611383e-13 0)
(0.0031862855 -2.3297881e-13 0)
(0.0031862855 -6.2497845e-14 0)
(0.0031862855 3.9488163e-14 0)
(0.0031862855 1.7251334e-13 0)
(0.0031862855 2.482731e-13 0)
(0.0031862855 3.5280985e-13 0)
(0.0031862855 4.1048112e-13 0)
(0.0031862855 4.8665391e-13 0)
(0.0031862855 5.2263769e-13 0)
(0.0031862855 5.6829505e-13 0)
(0.0031862855 5.7764815e-13 0)
(0.0031862855 5.8797774e-13 0)
(0.0031862855 5.6438638e-13 0)
(0.0031862855 5.4103045e-13 0)
(0.0031862855 4.7902988e-13 0)
(0.0031862855 4.1957851e-13 0)
(0.0031862855 3.110692e-13 0)
(0.0031862855 2.1821486e-13 0)
(0.0031862855 5.2449384e-14 0)
(0.0031862855 -7.7775018e-14 0)
(0.0031862855 -3.0245041e-13 0)
(0.0031862855 -4.4707305e-13 0)
(0.0031862855 -7.1016018e-13 0)
(0.0031862855 -8.39591e-13 0)
(0.0031862855 -1.0976548e-12 0)
(0.0031862855 -1.1470478e-12 0)
(0.0031862855 -1.3363647e-12 0)
(0.0031862855 -1.2571969e-12 0)
(0.0031862855 -1.3185572e-12 0)
(0.0031862855 -1.044518e-12 0)
(0.0031862854 -8.9799307e-13 0)
(0.0031862854 -3.6408194e-13 0)
(0.0031862854 9.6029878e-14 0)
(0.0031862854 1.0225524e-12 0)
(0.0031862854 1.9834143e-12 0)
(0.0031862854 3.4705015e-12 0)
(0.0031862854 5.0871574e-12 0)
(0.0031862855 7.1501856e-12 0)
(0.0031862855 9.1622792e-12 0)
(0.0031862855 1.0922663e-11 0)
(0.0031862855 1.1407109e-11 0)
(0.0031862855 9.2320734e-12 0)
(0.0031862855 1.9843131e-12 0)
(0.0031862855 -1.3972084e-11 0)
(0.0031862855 -4.3500026e-11 0)
(0.0031862854 -9.3035238e-11 0)
(0.0031862853 -1.6902375e-10 0)
(0.003186285 -2.7657087e-10 0)
(0.0031862847 -4.1604393e-10 0)
(0.0031862842 -5.740937e-10 0)
(0.0031862835 -7.2374943e-10 0)
(0.0031862826 -8.445924e-10 0)
(0.0031840244 -0.00048835537 0)
(0.0027249763 -0.00042089374 0)
(0.0020756951 -0.00020634348 0)
(0.0016542001 -9.875679e-05 0)
(0.0014397154 -4.8796546e-05 0)
(0.0013282496 -2.2999951e-05 0)
(0.0012711652 -1.0166797e-05 0)
(0.0012436745 -4.1675157e-06 0)
(0.001231331 -1.4897846e-06 0)
(0.0012263018 -3.7149953e-07 0)
(0.0012246079 3.8813035e-08 0)
(0.0012243038 1.4863623e-07 0)
(0.0012244873 1.4561003e-07 0)
(0.0012247755 1.1040145e-07 0)
(0.0012250288 7.4013348e-08 0)
(0.0012252133 4.5812438e-08 0)
(0.0012253344 2.6648531e-08 0)
(0.0012254083 1.4662583e-08 0)
(0.0012254509 7.6257322e-09 0)
(0.0012254741 3.7180706e-09 0)
(0.001225486 1.6648916e-09 0)
(0.0012254916 6.5124117e-10 0)
(0.0012254941 1.8937211e-10 0)
(0.001225495 3.4701796e-12 0)
(0.0012254952 -5.4494702e-11 0)
(0.0012254952 -5.9356038e-11 0)
(0.0012254951 -4.6559103e-11 0)
(0.001225495 -3.1112114e-11 0)
(0.0012254949 -1.8466659e-11 0)
(0.0012254948 -9.6337931e-12 0)