# Solver information
# Time          	U_solver        	Ux_initial      	Ux_final        	Ux_iters        	Uy_initial      	Uy_final        	Uy_iters        	U_converged     	p_solver        	p_initial       	p_final         	p_iters         	p_converged     
1               	smoothSolver	1.00000000e+00	4.25471130e-03	5	9.99999960e-01	9.99448150e-03	4	false	GAMG	1.00000000e+00	7.10007480e-03	8	true
2               	smoothSolver	7.97755050e-01	4.45374500e-03	8	2.46391310e-01	2.25260850e-03	7	false	GAMG	2.10057750e-03	1.35161940e-05	8	true
3               	smoothSolver	9.15405510e-02	5.88270750e-04	7	2.17882370e-02	1.20082450e-04	7	false	GAMG	2.62466770e-02	1.62304890e-04	5	true
4               	smoothSolver	4.89763830e-02	3.28121420e-04	7	1.60718890e-02	8.04242370e-05	7	false	GAMG	1.80324390e-02	9.50041670e-05	4	true
5               	smoothSolver	3.51720990e-02	2.59895370e-04	7	1.31705760e-02	7.19120730e-05	7	false	GAMG	9.45150990e-03	7.11062960e-05	4	true
6               	smoothSolver	2.76103410e-02	2.18575000e-04	7	1.10908370e-02	6.62939070e-05	7	false	GAMG	5.97922160e-03	5.33184320e-05	4	true
7               	smoothSolver	2.28778380e-02	1.90534100e-04	7	9.76192410e-03	6.23052570e-05	7	false	GAMG	4.16211970e-03	1.91465720e-05	5	true
8               	smoothSolver	1.97122900e-02	1.69395210e-04	7	8.80027010e-03	5.93589270e-05	7	false	GAMG	3.08068870e-03	1.62610710e-05	5	true
9               	smoothSolver	1.73550080e-02	1.53210400e-04	7	8.06445170e-03	5.67814440e-05	7	false	GAMG	2.42169440e-03	1.41305990e-05	5	true
10              	smoothSolver	1.55480690e-02	1.40155540e-04	7	7.48161130e-03	5.45037670e-05	7	false	GAMG	1.96634950e-03	1.24409050e-05	5	true
11              	smoothSolver	1.41038290e-02	1.29010210e-04	7	6.97704820e-03	5.25834150e-05	7	false	GAMG	1.66749830e-03	1.10688790e-05	5	true
12              	smoothSolver	1.28854390e-02	1.19641900e-04	7	6.56782420e-03	5.07706780e-05	7	false	GAMG	1.46326690e-03	9.91833890e-06	5	true
13              	smoothSolver	1.18834050e-02	1.11688340e-04	7	6.21406030e-03	4.90997970e-05	7	false	GAMG	1.30522620e-03	8.92638860e-06	5	true
14              	smoothSolver	1.10384560e-02	1.04724170e-04	7	5.89336920e-03	4.76455540e-05	7	false	GAMG	1.16985220e-03	8.05957670e-06	5	true
15              	smoothSolver	1.02969230e-02	9.85189480e-05	7	5.62044590e-03	4.62713660e-05	7	false	GAMG	1.05614200e-03	7.29626520e-06	5	true
16              	smoothSolver	9.64017980e-03	9.30628060e-05	7	5.38122430e-03	4.49579510e-05	7	false	GAMG	9.57049570e-04	6.62073290e-06	5	true
17              	smoothSolver	9.07600460e-03	8.81563800e-05	7	5.15867470e-03	4.37531670e-05	7	false	GAMG	8.71186010e-04	6.02042390e-06	5	true
18              	smoothSolver	8.57123610e-03	8.37529660e-05	7	4.95526040e-03	4.26814490e-05	7	false	GAMG	7.98819560e-04	5.48515290e-06	5	true
19              	smoothSolver	8.11298710e-03	7.97155990e-05	7	4.78211950e-03	4.16397360e-05	7	false	GAMG	7.35819640e-04	5.00916510e-06	5	true
20              	smoothSolver	7.69496700e-03	7.60015720e-05	7	4.61938140e-03	4.06331910e-05	7	false	GAMG	6.80781220e-04	4.58533220e-06	5	true
21              	smoothSolver	7.31258430e-03	7.26094560e-05	7	4.46554100e-03	3.96983830e-05	7	false	GAMG	6.32041630e-04	4.20737020e-06	5	true
22              	smoothSolver	6.97796890e-03	6.95193920e-05	7	4.32390170e-03	3.88601010e-05	7	false	GAMG	5.89216270e-04	3.87040120e-06	5	true
23              	smoothSolver	6.67120560e-03	6.66727890e-05	7	4.19899280e-03	3.80424760e-05	7	false	GAMG	5.50828090e-04	3.56894180e-06	5	true
24              	smoothSolver	6.38658540e-03	3.31274290e-05	8	4.08105960e-03	3.72543160e-05	7	false	GAMG	5.18278490e-04	3.36747130e-06	5	true
25              	smoothSolver	6.11959610e-03	3.18619240e-05	8	3.97340420e-03	3.65341880e-05	7	false	GAMG	4.86916250e-04	3.06774880e-06	5	true
26              	smoothSolver	5.87090310e-03	3.07007010e-05	8	3.86802500e-03	3.58401310e-05	7	false	GAMG	4.58124630e-04	2.85090900e-06	5	true
27              	smoothSolver	5.63657160e-03	2.96088150e-05	8	3.77137700e-03	3.51915210e-05	7	false	GAMG	4.32956600e-04	2.66201720e-06	5	true
28              	smoothSolver	5.42287440e-03	2.85710310e-05	8	3.68162700e-03	3.45621170e-05	7	false	GAMG	4.09813310e-04	2.49546680e-06	5	true
29              	smoothSolver	5.22589030e-03	2.75899710e-05	8	3.59704050e-03	3.39489460e-05	7	false	GAMG	3.88341780e-04	2.34950980e-06	5	true
30              	smoothSolver	5.04017630e-03	2.66611330e-05	8	3.51638220e-03	3.33564910e-05	7	false	GAMG	3.68680080e-04	2.22152330e-06	5	true
31              	smoothSolver	4.86488760e-03	2.57808470e-05	8	3.44080150e-03	3.28062540e-05	7	false	GAMG	3.50863350e-04	2.10976270e-06	5	true
32              	smoothSolver	4.69925590e-03	2.49480410e-05	8	3.36985990e-03	3.22950910e-05	7	false	GAMG	3.34614310e-04	2.01190470e-06	5	true
33              	smoothSolver	4.54232280e-03	2.41736830e-05	8	3.30269730e-03	3.17905100e-05	7	false	GAMG	3.19743860e-04	1.92618600e-06	5	true
34              	smoothSolver	4.39352720e-03	2.34417760e-05	8	3.23799530e-03	3.12961180e-05	7	false	GAMG	3.05677030e-04	1.84977430e-06	5	true
35              	smoothSolver	4.25237180e-03	2.27567350e-05	8	3.17621550e-03	3.08156020e-05	7	false	GAMG	2.92730160e-04	1.78148210e-06	5	true
36              	smoothSolver	4.12146010e-03	2.21031330e-05	8	3.11729000e-03	3.03549810e-05	7	false	GAMG	2.80737320e-04	1.71808690e-06	5	true
37              	smoothSolver	3.99963820e-03	2.14779240e-05	8	3.06156620e-03	2.99281670e-05	7	false	GAMG	2.69443610e-04	1.65801500e-06	5	true
38              	smoothSolver	3.88338850e-03	2.08795700e-05	8	3.00885520e-03	2.95147540e-05	7	false	GAMG	2.58783260e-04	1.59939270e-06	5	true
39              	smoothSolver	3.77232390e-03	2.03061710e-05	8	2.95823520e-03	2.91086780e-05	7	false	GAMG	2.49131090e-04	1.54137860e-06	5	true
40              	smoothSolver	3.66616980e-03	1.97564030e-05	8	2.90930880e-03	2.87098570e-05	7	false	GAMG	2.40195210e-04	1.48431030e-06	5	true
41              	smoothSolver	3.56405810e-03	1.92270930e-05	8	2.86218600e-03	2.83185570e-05	7	false	GAMG	2.31864400e-04	1.42721890e-06	5	true
42              	smoothSolver	3.46550150e-03	1.87161540e-05	8	2.81692250e-03	2.79415230e-05	7	false	GAMG	2.23986500e-04	1.37050770e-06	5	true
43              	smoothSolver	3.37076580e-03	1.82279340e-05	8	2.77336290e-03	2.75830590e-05	7	false	GAMG	2.16657970e-04	1.31423090e-06	5	true
44              	smoothSolver	3.27986890e-03	1.77649200e-05	8	2.73140140e-03	2.72330860e-05	7	false	GAMG	2.09786360e-04	1.25917590e-06	5	true
45              	smoothSolver	3.19261280e-03	1.73196290e-05	8	2.69068800e-03	2.68891040e-05	7	false	GAMG	2.03273720e-04	1.20599910e-06	5	true
46              	smoothSolver	3.10910730e-03	1.68955850e-05	8	2.65130860e-03	1.37224030e-05	8	false	GAMG	2.00742600e-04	1.08964260e-06	5	true
47              	smoothSolver	3.03139960e-03	1.64936290e-05	8	2.61011140e-03	1.35419460e-05	8	false	GAMG	1.92266190e-04	1.10675680e-06	5	true
48              	smoothSolver	2.95707340e-03	1.61028450e-05	8	2.57308790e-03	1.33797010e-05	8	false	GAMG	1.86844580e-04	1.06277290e-06	5	true
49              	smoothSolver	2.88559910e-03	1.57256520e-05	8	2.53730550e-03	1.32225150e-05	8	false	GAMG	1.81918810e-04	1.01958840e-06	5	true
50              	smoothSolver	2.81665060e-03	1.53615550e-05	8	2.50239930e-03	1.30714300e-05	8	false	GAMG	1.77252370e-04	9.79534420e-07	5	true
51              	smoothSolver	2.75008450e-03	1.50098200e-05	8	2.46846570e-03	1.29230250e-05	8	false	GAMG	1.72810800e-04	9.42279720e-07	5	true
52              	smoothSolver	2.68581590e-03	1.46701580e-05	8	2.43551250e-03	1.27769020e-05	8	false	GAMG	1.68643840e-04	9.07325370e-07	5	true
53              	smoothSolver	2.62377850e-03	1.43416960e-05	8	2.40355130e-03	1.26338310e-05	8	false	GAMG	1.64676640e-04	8.74539830e-07	5	true
54              	smoothSolver	2.56379890e-03	1.40240070e-05	8	2.37249940e-03	1.24932970e-05	8	false	GAMG	1.60848800e-04	8.43885310e-07	5	true
55              	smoothSolver	2.50581550e-03	1.37165560e-05	8	2.34217370e-03	1.23563090e-05	8	false	GAMG	1.57135690e-04	8.14832800e-07	5	true
56              	smoothSolver	2.44969920e-03	1.34185320e-05	8	2.31262030e-03	1.22228850e-05	8	false	GAMG	1.53607870e-04	7.87491690e-07	5	true
57              	smoothSolver	2.39543800e-03	1.31302190e-05	8	2.28375820e-03	1.20921650e-05	8	false	GAMG	1.50260790e-04	7.61528910e-07	5	true
58              	smoothSolver	2.34294860e-03	1.28515820e-05	8	2.25557170e-03	1.19634550e-05	8	false	GAMG	1.47063420e-04	7.36974120e-07	5	true
59              	smoothSolver	2.29216970e-03	1.25829350e-05	8	2.22805610e-03	1.18369180e-05	8	false	GAMG	1.44021220e-04	7.13569790e-07	5	true
60              	smoothSolver	2.24298220e-03	1.23236450e-05	8	2.20122630e-03	1.17118120e-05	8	false	GAMG	1.41066040e-04	6.91381460e-07	5	true
61              	smoothSolver	2.19545890e-03	1.20718710e-05	8	2.17494220e-03	1.15886510e-05	8	false	GAMG	1.38261300e-04	6.70038870e-07	5	true
62              	smoothSolver	2.14959740e-03	1.18274440e-05	8	2.14926690e-03	1.14677870e-05	8	false	GAMG	1.35638040e-04	6.49401890e-07	5	true
63              	smoothSolver	2.10584970e-03	1.15917960e-05	8	2.12404590e-03	1.13489630e-05	8	false	GAMG	1.33117760e-04	6.29854200e-07	5	true
64              	smoothSolver	2.06338580e-03	1.13624670e-05	8	2.09936010e-03	1.12318030e-05	8	false	GAMG	1.30716640e-04	6.11061270e-07	5	true
65              	smoothSolver	2.02196070e-03	1.11385090e-05	8	2.07510340e-03	1.11162950e-05	8	false	GAMG	1.28424410e-04	5.92879290e-07	5	true
66              	smoothSolver	1.98166090e-03	1.09200380e-05	8	2.05132890e-03	1.10020850e-05	8	false	GAMG	1.26193440e-04	5.75433870e-07	5	true
67              	smoothSolver	1.94249720e-03	1.07076160e-05	8	2.02799820e-03	1.08894850e-05	8	false	GAMG	1.24013960e-04	5.58653870e-07	5	true
68              	smoothSolver	1.90439120e-03	1.05007850e-05	8	2.00507830e-03	1.07783170e-05	8	false	GAMG	1.21892900e-04	5.42527600e-07	5	true
69              	smoothSolver	1.86730710e-03	1.02991550e-05	8	1.98260620e-03	1.06691640e-05	8	false	GAMG	1.19864330e-04	5.26944910e-07	5	true
70              	smoothSolver	1.83123190e-03	1.01027560e-05	8	1.96049150e-03	1.05616560e-05	8	false	GAMG	1.17909530e-04	5.11950570e-07	5	true
71              	smoothSolver	1.79608620e-03	9.91135080e-06	8	1.93872780e-03	1.04555200e-05	8	false	GAMG	1.16002160e-04	4.97447830e-07	5	true
72              	smoothSolver	1.76184900e-03	9.72464410e-06	8	1.91735500e-03	1.03507080e-05	8	false	GAMG	1.14159570e-04	4.83464170e-07	5	true
73              	smoothSolver	1.72847520e-03	9.54261330e-06	8	1.89633890e-03	1.02472250e-05	8	false	GAMG	1.12378900e-04	4.70045410e-07	5	true
74              	smoothSolver	1.69594300e-03	9.36521390e-06	8	1.87567480e-03	1.01451470e-05	8	false	GAMG	1.10637000e-04	4.57077630e-07	5	true
75              	smoothSolver	1.66421740e-03	9.19222890e-06	8	1.85538380e-03	1.00443270e-05	8	false	GAMG	1.08934720e-04	4.44502990e-07	5	true
76              	smoothSolver	1.63326890e-03	9.02342470e-06	8	1.83535160e-03	9.94508720e-06	8	false	GAMG	1.07262140e-04	4.32403530e-07	5	true
77              	smoothSolver	1.60309180e-03	8.85863260e-06	8	1.81567340e-03	9.84716090e-06	8	false	GAMG	1.05637790e-04	4.20711140e-07	5	true
78              	smoothSolver	1.57363860e-03	8.69786430e-06	8	1.79623890e-03	9.75040700e-06	8	false	GAMG	1.04046650e-04	4.09404030e-07	5	true
79              	smoothSolver	1.54489290e-03	8.54100060e-06	8	1.77716440e-03	9.65494060e-06	8	false	GAMG	1.02508490e-04	3.98507880e-07	5	true
80              	smoothSolver	1.51683540e-03	8.38786610e-06	8	1.75836640e-03	9.56054550e-06	8	false	GAMG	1.01005220e-04	3.87998100e-07	5	true
81              	smoothSolver	1.48946580e-03	8.23835780e-06	8	1.73983500e-03	9.46736500e-06	8	false	GAMG	9.95398750e-05	3.77837720e-07	5	true
82              	smoothSolver	1.46276710e-03	8.09237030e-06	8	1.72164630e-03	9.37540860e-06	8	false	GAMG	9.81286250e-05	3.68035980e-07	5	true
83              	smoothSolver	1.43671070e-03	7.94971650e-06	8	1.70369780e-03	9.28468430e-06	8	false	GAMG	9.67464970e-05	3.58546010e-07	5	true
84              	smoothSolver	1.41127280e-03	7.81030720e-06	8	1.68601400e-03	9.19524270e-06	8	false	GAMG	9.53860150e-05	3.49396060e-07	5	true
85              	smoothSolver	1.38642780e-03	7.67405380e-06	8	1.66858240e-03	9.10673870e-06	8	false	GAMG	9.40523720e-05	3.40557240e-07	5	true
86              	smoothSolver	1.36212970e-03	7.54091320e-06	8	1.65142820e-03	9.01949170e-06	8	false	GAMG	9.27518970e-05	3.32025060e-07	5	true
87              	smoothSolver	1.33838530e-03	7.41093100e-06	8	1.63451840e-03	8.93319380e-06	8	false	GAMG	9.14758730e-05	3.23791430e-07	5	true
88              	smoothSolver	1.31517760e-03	7.28420510e-06	8	1.61783320e-03	8.84793470e-06	8	false	GAMG	9.02187720e-05	3.15866980e-07	5	true
89              	smoothSolver	1.29251210e-03	7.16017530e-06	8	1.60140380e-03	8.76369100e-06	8	false	GAMG	8.89830270e-05	3.08201610e-07	5	true
90              	smoothSolver	1.27037180e-03	7.03879140e-06	8	1.58519430e-03	8.68045420e-06	8	false	GAMG	8.77758860e-05	3.00787810e-07	5	true
91              	smoothSolver	1.24883340e-03	6.92002870e-06	8	1.56919610e-03	8.59828260e-06	8	false	GAMG	8.66113190e-05	2.93599480e-07	5	true
92              	smoothSolver	1.22778810e-03	6.80387060e-06	8	1.55343020e-03	8.51710860e-06	8	false	GAMG	8.54677730e-05	2.86770920e-07	5	true
93              	smoothSolver	1.20719890e-03	6.69012180e-06	8	1.53788830e-03	8.43695850e-06	8	false	GAMG	8.43427070e-05	2.79978340e-07	5	true
94              	smoothSolver	1.18705540e-03	6.57872300e-06	8	1.52254120e-03	8.35758010e-06	8	false	GAMG	8.32498410e-05	2.73471480e-07	5	true
95              	smoothSolver	1.16733290e-03	6.46980020e-06	8	1.50740140e-03	8.27922760e-06	8	false	GAMG	8.21817680e-05	2.67168640e-07	5	true
96              	smoothSolver	1.14801290e-03	6.36319470e-06	8	1.49248580e-03	8.20173470e-06	8	false	GAMG	8.11250370e-05	2.61074590e-07	5	true
97              	smoothSolver	1.12908630e-03	6.25884570e-06	8	1.47774870e-03	8.12519970e-06	8	false	GAMG	8.00857120e-05	2.55161730e-07	5	true
98              	smoothSolver	1.11054520e-03	6.15658240e-06	8	1.46321220e-03	8.04959790e-06	8	false	GAMG	7.90506010e-05	2.49427850e-07	5	true
99              	smoothSolver	1.09239050e-03	6.05633700e-06	8	1.44886170e-03	7.97481920e-06	8	false	GAMG	7.80355300e-05	2.43852360e-07	5	true
100             	smoothSolver	1.07459560e-03	5.95806880e-06	8	1.43469870e-03	7.90084880e-06	8	false	GAMG	7.70366060e-05	2.38441630e-07	5	true
101             	smoothSolver	1.05715090e-03	5.86174330e-06	8	1.42070380e-03	7.82773720e-06	8	false	GAMG	7.60597700e-05	2.33195850e-07	5	true
102             	smoothSolver	1.04004970e-03	5.76731660e-06	8	1.40690880e-03	7.75542340e-06	8	false	GAMG	7.51043660e-05	2.28103120e-07	5	true
103             	smoothSolver	1.02329150e-03	5.67477090e-06	8	1.39329260e-03	7.68396430e-06	8	false	GAMG	7.41685510e-05	2.23162280e-07	5	true
104             	smoothSolver	1.00686140e-03	5.58398920e-06	8	1.37984730e-03	7.61332950e-06	8	false	GAMG	7.32467260e-05	2.18364690e-07	5	true
105             	smoothSolver	9.90742580e-04	5.49493940e-06	8	1.36656690e-03	7.54342100e-06	8	false	GAMG	7.23406300e-05	2.13704210e-07	5	true
106             	smoothSolver	9.74930960e-04	5.40759760e-06	8	1.35343660e-03	7.47422790e-06	8	false	GAMG	7.14456320e-05	7.05935230e-07	4	true
107             	smoothSolver	9.59410400e-04	5.32186400e-06	8	1.34046220e-03	7.40579870e-06	8	false	GAMG	7.05646010e-05	6.88397150e-07	4	true
108             	smoothSolver	9.44157860e-04	5.23762920e-06	8	1.32764760e-03	7.33813980e-06	8	false	GAMG	6.97023040e-05	6.71327410e-07	4	true
109             	smoothSolver	9.29169730e-04	5.15484510e-06	8	1.31499950e-03	7.27124800e-06	8	false	GAMG	6.88568960e-05	6.54697720e-07	4	true
110             	smoothSolver	9.14455230e-04	5.07352380e-06	8	1.30249030e-03	7.20512530e-06	8	false	GAMG	6.80256690e-05	6.38489160e-07	4	true
111             	smoothSolver	9.00011630e-04	4.99373130e-06	8	1.29015700e-03	7.13965050e-06	8	false	GAMG	6.72073190e-05	6.22702250e-07	4	true
112             	smoothSolver	8.85838980e-04	4.91541410e-06	8	1.27795380e-03	7.07491700e-06	8	false	GAMG	6.63973260e-05	6.07320560e-07	4	true
113             	smoothSolver	8.71930430e-04	4.83861140e-06	8	1.26590950e-03	7.01084110e-06	8	false	GAMG	6.55960130e-05	5.92361920e-07	4	true
114             	smoothSolver	8.58281250e-04	4.76328280e-06	8	1.25399560e-03	6.94746890e-06	8	false	GAMG	6.48108610e-05	5.77830550e-07	4	true
115             	smoothSolver	8.44897500e-04	4.68937710e-06	8	1.24221660e-03	6.88475760e-06	8	false	GAMG	6.40407810e-05	5.63689790e-07	4	true
116             	smoothSolver	8.31761390e-04	4.61683900e-06	8	1.23057470e-03	6.82273430e-06	8	false	GAMG	6.32842170e-05	5.49946850e-07	4	true
117             	smoothSolver	8.18866910e-04	4.54559430e-06	8	1.21908060e-03	6.76134600e-06	8	false	GAMG	6.25385470e-05	5.36584250e-07	4	true
118             	smoothSolver	8.06211210e-04	4.47564730e-06	8	1.20771530e-03	6.70065940e-06	8	false	GAMG	6.18007390e-05	5.23580090e-07	4	true
119             	smoothSolver	7.93786630e-04	4.40695490e-06	8	1.19648400e-03	6.64052470e-06	8	false	GAMG	6.10686960e-05	5.10894700e-07	4	true
120             	smoothSolver	7.81593380e-04	4.33954130e-06	8	1.18538260e-03	6.58106240e-06	8	false	GAMG	6.03554720e-05	4.98605500e-07	4	true
121             	smoothSolver	7.69630750e-04	4.27339180e-06	8	1.17440220e-03	6.52208850e-06	8	false	GAMG	5.96453810e-05	4.86681030e-07	4	true
122             	smoothSolver	7.57878420e-04	4.20841600e-06	8	1.16354740e-03	6.46378810e-06	8	false	GAMG	5.89407710e-05	4.75118780e-07	4	true
123             	smoothSolver	7.46338960e-04	4.14457750e-06	8	1.15280820e-03	6.40608880e-06	8	false	GAMG	5.82511160e-05	4.63883260e-07	4	true
124             	smoothSolver	7.35003730e-04	4.08186950e-06	8	1.14218980e-03	6.34904740e-06	8	false	GAMG	5.75689590e-05	4.52955850e-07	4	true
125             	smoothSolver	7.23871700e-04	4.02026690e-06	8	1.13169830e-03	6.29257460e-06	8	false	GAMG	5.68950800e-05	4.42335610e-07	4	true
126             	smoothSolver	7.12942520e-04	3.95974550e-06	8	1.12132020e-03	6.23673350e-06	8	false	GAMG	5.62288870e-05	4.32032560e-07	4	true
127             	smoothSolver	7.02211210e-04	3.90032970e-06	8	1.11105110e-03	6.18139060e-06	8	false	GAMG	5.55715980e-05	4.22051350e-07	4	true
128             	smoothSolver	6.91668170e-04	3.84195420e-06	8	1.10090080e-03	6.12668760e-06	8	false	GAMG	5.49252510e-05	4.12369520e-07	4	true
129             	smoothSolver	6.81306540e-04	3.78458100e-06	8	1.09085590e-03	6.07248020e-06	8	false	GAMG	5.42868400e-05	4.03012400e-07	4	true
130             	smoothSolver	6.71123850e-04	3.72821970e-06	8	1.08093030e-03	6.01890390e-06	8	false	GAMG	5.36561380e-05	3.93920890e-07	4	true
131             	smoothSolver	6.61121430e-04	3.67282640e-06	8	1.07110120e-03	5.96575720e-06	8	false	GAMG	5.30350650e-05	3.85072080e-07	4	true
132             	smoothSolver	6.51291380e-04	3.61840140e-06	8	1.06138770e-03	5.91315600e-06	8	false	GAMG	5.24242600e-05	3.76475110e-07	4	true
133             	smoothSolver	6.41634420e-04	3.56491610e-06	8	1.05176930e-03	5.86102040e-06	8	false	GAMG	5.18237200e-05	3.68107100e-07	4	true
134             	smoothSolver	6.32145620e-04	3.51235570e-06	8	1.04225000e-03	5.80931790e-06	8	false	GAMG	5.12303430e-05	3.59960360e-07	4	true
135             	smoothSolver	6.22819480e-04	3.46068010e-06	8	1.03283070e-03	5.75807400e-06	8	false	GAMG	5.06419310e-05	3.52035300e-07	4	true
136             	smoothSolver	6.13648770e-04	3.40988510e-06	8	1.02351390e-03	5.70744710e-06	8	false	GAMG	5.00596000e-05	3.44322720e-07	4	true
137             	smoothSolver	6.04635760e-04	3.35994260e-06	8	1.01429140e-03	5.65734010e-06	8	false	GAMG	4.94845650e-05	3.36808640e-07	4	true
138             	smoothSolver	5.95776510e-04	3.31087370e-06	8	1.00517960e-03	5.60781680e-06	8	false	GAMG	4.89178360e-05	3.29515330e-07	4	true
139             	smoothSolver	5.87069050e-04	3.26265090e-06	8	9.96157220e-04	5.55882690e-06	8	false	GAMG	4.83574000e-05	3.22443660e-07	4	true
140             	smoothSolver	5.78512360e-04	3.21523730e-06	8	9.87239090e-04	5.51039710e-06	8	false	GAMG	4.78038910e-05	3.15561280e-07	4	true
141             	smoothSolver	5.70097840e-04	3.16861650e-06	8	9.78408460e-04	5.46240040e-06	8	false	GAMG	4.72570000e-05	3.08860810e-07	4	true
142             	smoothSolver	5.61822800e-04	3.12277340e-06	8	9.69681670e-04	5.41486080e-06	8	false	GAMG	4.67185190e-05	3.02348390e-07	4	true
143             	smoothSolver	5.53687130e-04	3.07767560e-06	8	9.61039780e-04	5.36775960e-06	8	false	GAMG	4.61868350e-05	2.96019010e-07	4	true
144             	smoothSolver	5.45684210e-04	3.03332880e-06	8	9.52486050e-04	5.32101140e-06	8	false	GAMG	4.56615240e-05	2.89843450e-07	4	true
145             	smoothSolver	5.37817460e-04	2.98972690e-06	8	9.44016830e-04	5.27464800e-06	8	false	GAMG	4.51426350e-05	2.83823990e-07	4	true
146             	smoothSolver	5.30086070e-04	2.94686060e-06	8	9.35631500e-04	5.22859180e-06	8	false	GAMG	4.46292440e-05	2.77980070e-07	4	true
147             	smoothSolver	5.22482150e-04	2.90471220e-06	8	9.27318580e-04	5.18290110e-06	8	false	GAMG	4.41226580e-05	2.72300250e-07	4	true
148             	smoothSolver	5.15000880e-04	2.86326870e-06	8	9.19092060e-04	5.13783050e-06	8	false	GAMG	4.36221790e-05	2.66781710e-07	4	true
149             	smoothSolver	5.07644670e-04	2.82249090e-06	8	9.10944950e-04	5.09337430e-06	8	false	GAMG	4.31261410e-05	2.61402300e-07	4	true
150             	smoothSolver	5.00407190e-04	2.78238400e-06	8	9.02880560e-04	5.04939710e-06	8	false	GAMG	4.26348530e-05	2.56157010e-07	4	true
151             	smoothSolver	4.93286630e-04	2.74293060e-06	8	8.94905670e-04	5.00587710e-06	8	false	GAMG	4.21489820e-05	2.51051210e-07	4	true
152             	smoothSolver	4.86283340e-04	2.70412040e-06	8	8.87022990e-04	4.96274870e-06	8	false	GAMG	4.16699030e-05	2.46084650e-07	4	true
153             	smoothSolver	4.79397140e-04	2.66594630e-06	8	8.79220120e-04	4.92005840e-06	8	false	GAMG	4.11971050e-05	2.41246500e-07	4	true
154             	smoothSolver	4.72623980e-04	2.62842100e-06	8	8.71500930e-04	4.87766950e-06	8	false	GAMG	4.07320060e-05	2.36538140e-07	4	true
155             	smoothSolver	4.65960210e-04	2.59150350e-06	8	8.63863090e-04	4.83566920e-06	8	false	GAMG	4.02724620e-05	2.31958190e-07	4	true
156             	smoothSolver	4.59404500e-04	2.55518820e-06	8	8.56293210e-04	4.79393530e-06	8	false	GAMG	3.98192840e-05	2.27495250e-07	4	true
157             	smoothSolver	4.52952200e-04	2.51946720e-06	8	8.48802590e-04	4.75251040e-06	8	false	GAMG	3.93722880e-05	2.23142520e-07	4	true
158             	smoothSolver	4.46607810e-04	2.48431750e-06	8	8.41367150e-04	4.71135480e-06	8	false	GAMG	3.89295560e-05	2.18900720e-07	4	true
159             	smoothSolver	4.40367830e-04	2.44972560e-06	8	8.34002440e-04	4.67061180e-06	8	false	GAMG	3.84923940e-05	2.14770080e-07	4	true
160             	smoothSolver	4.34230860e-04	2.41569640e-06	8	8.26695890e-04	4.63059430e-06	8	false	GAMG	3.80596700e-05	2.10748220e-07	4	true
161             	smoothSolver	4.28193000e-04	2.38222870e-06	8	8.19468280e-04	4.59105040e-06	8	false	GAMG	3.76312100e-05	2.06831560e-07	4	true
162             	smoothSolver	4.22252300e-04	2.34930320e-06	8	8.12310100e-04	4.55192400e-06	8	false	GAMG	3.72077630e-05	2.03016720e-07	4	true
163             	smoothSolver	4.16404830e-04	2.31688940e-06	8	8.05241490e-04	4.51306830e-06	8	false	GAMG	3.67887080e-05	1.99301270e-07	4	true
164             	smoothSolver	4.10652850e-04	2.28499390e-06	8	7.98253160e-04	4.47461740e-06	8	false	GAMG	3.63737820e-05	1.95685600e-07	4	true
165             	smoothSolver	4.04990870e-04	2.25359650e-06	8	7.91341260e-04	4.43642740e-06	8	false	GAMG	3.59618210e-05	1.92171790e-07	4	true
166             	smoothSolver	3.99419760e-04	2.22268810e-06	8	7.84495830e-04	4.39859730e-06	8	false	GAMG	3.55528310e-05	1.88770990e-07	4	true
167             	smoothSolver	3.93937950e-04	2.19228130e-06	8	7.77719830e-04	4.36100220e-06	8	false	GAMG	3.51493580e-05	1.85453960e-07	4	true
168             	smoothSolver	3.88543070e-04	2.16236590e-06	8	7.71002130e-04	4.32370590e-06	8	false	GAMG	3.47529800e-05	1.82227040e-07	4	true
169             	smoothSolver	3.83231930e-04	2.13292890e-06	8	7.64339340e-04	4.28661740e-06	8	false	GAMG	3.43636070e-05	1.79096410e-07	4	true
170             	smoothSolver	3.78002010e-04	2.10394240e-06	8	7.57733660e-04	4.24981010e-06	8	false	GAMG	3.39800780e-05	1.76072280e-07	4	true
171             	smoothSolver	3.72856430e-04	2.07540790e-06	8	7.51173760e-04	4.21369190e-06	8	false	GAMG	3.36003060e-05	1.73147450e-07	4	true
172             	smoothSolver	3.67790780e-04	2.04730610e-06	8	7.44667940e-04	4.17802700e-06	8	false	GAMG	3.32242770e-05	1.70314940e-07	4	true
173             	smoothSolver	3.62806200e-04	2.01963910e-06	8	7.38230330e-04	4.14273980e-06	8	false	GAMG	3.28517220e-05	1.67572470e-07	4	true
174             	smoothSolver	3.57900030e-04	1.99240110e-06	8	7.31874420e-04	4.10771330e-06	8	false	GAMG	3.24828070e-05	1.64783210e-07	4	true
175             	smoothSolver	3.53073300e-04	1.96560070e-06	8	7.25596530e-04	4.07301550e-06	8	false	GAMG	3.21187720e-05	1.62239130e-07	4	true
176             	smoothSolver	3.48318900e-04	1.93922560e-06	8	7.19392170e-04	4.03857660e-06	8	false	GAMG	3.17589590e-05	1.59722480e-07	4	true
177             	smoothSolver	3.43636590e-04	1.91325860e-06	8	7.13240140e-04	4.00442800e-06	8	false	GAMG	3.14025020e-05	1.57272080e-07	4	true
178             	smoothSolver	3.39026950e-04	1.88768860e-06	8	7.07151890e-04	3.97049240e-06	8	false	GAMG	3.10507430e-05	1.54883670e-07	4	true
179             	smoothSolver	3.34488540e-04	1.86250430e-06	8	7.01112120e-04	3.93683080e-06	8	false	GAMG	3.07027760e-05	1.52561910e-07	4	true
180             	smoothSolver	3.30018760e-04	1.83770790e-06	8	6.95122990e-04	3.90335830e-06	8	false	GAMG	3.03583740e-05	1.50306160e-07	4	true
181             	smoothSolver	3.25617900e-04	1.81330000e-06	8	6.89182150e-04	3.87010770e-06	8	false	GAMG	3.00179910e-05	1.48107270e-07	4	true
182             	smoothSolver	3.21286760e-04	1.78927300e-06	8	6.83281600e-04	3.83742140e-06	8	false	GAMG	2.96812940e-05	1.45966610e-07	4	true
183             	smoothSolver	3.17021430e-04	1.76561120e-06	8	6.77424530e-04	3.80520370e-06	8	false	GAMG	2.93490560e-05	1.43876130e-07	4	true
184             	smoothSolver	3.12819970e-04	1.74232570e-06	8	6.71620100e-04	3.77334490e-06	8	false	GAMG	2.90210800e-05	1.41837690e-07	4	true
185             	smoothSolver	3.08684520e-04	1.71939450e-06	8	6.65897360e-04	3.74172160e-06	8	false	GAMG	2.86964930e-05	1.39850370e-07	4	true
186             	smoothSolver	3.04612350e-04	1.69679800e-06	8	6.60248230e-04	3.71040390e-06	8	false	GAMG	2.83764020e-05	1.37911400e-07	4	true
187             	smoothSolver	3.00602320e-04	1.67454160e-06	8	6.54664910e-04	3.67931210e-06	8	false	GAMG	2.80610880e-05	1.36017010e-07	4	true
188             	smoothSolver	2.96652570e-04	1.65261800e-06	8	6.49127390e-04	3.64847030e-06	8	false	GAMG	2.77486760e-05	1.34160640e-07	4	true
189             	smoothSolver	2.92763940e-04	1.63104000e-06	8	6.43644720e-04	3.61781560e-06	8	false	GAMG	2.74390660e-05	1.32343320e-07	4	true
190             	smoothSolver	2.88935380e-04	1.60978480e-06	8	6.38204630e-04	3.58740060e-06	8	false	GAMG	2.71331830e-05	1.30566440e-07	4	true
191             	smoothSolver	2.85162860e-04	1.58885580e-06	8	6.32805560e-04	3.55715150e-06	8	false	GAMG	2.68302150e-05	1.28837790e-07	4	true
192             	smoothSolver	2.81448070e-04	1.56825190e-06	8	6.27449600e-04	3.52709120e-06	8	false	GAMG	2.65305630e-05	1.27151790e-07	4	true
193             	smoothSolver	2.77788840e-04	1.54794460e-06	8	6.22126980e-04	3.49743750e-06	8	false	GAMG	2.62343340e-05	1.25504440e-07	4	true
194             	smoothSolver	2.74186570e-04	1.52793050e-06	8	6.16841300e-04	3.46823250e-06	8	false	GAMG	2.59426760e-05	1.23894830e-07	4	true
195             	smoothSolver	2.70637260e-04	1.50821690e-06	8	6.11603810e-04	3.43937480e-06	8	false	GAMG	2.56556380e-05	1.22326540e-07	4	true
196             	smoothSolver	2.67142510e-04	1.48880520e-06	8	6.06428950e-04	3.41076700e-06	8	false	GAMG	2.53715180e-05	1.20799260e-07	4	true
197             	smoothSolver	2.63698250e-04	1.46968820e-06	8	6.01329940e-04	3.38245350e-06	8	false	GAMG	2.50904230e-05	1.19305980e-07	4	true
198             	smoothSolver	2.60307340e-04	1.45086860e-06	8	5.96290420e-04	3.35433940e-06	8	false	GAMG	2.48132530e-05	1.17839210e-07	4	true
199             	smoothSolver	2.56966980e-04	1.43234580e-06	8	5.91295500e-04	3.32644110e-06	8	false	GAMG	2.45385200e-05	1.16400080e-07	4	true
200             	smoothSolver	2.53675810e-04	1.41410070e-06	8	5.86343990e-04	3.29872200e-06	8	false	GAMG	2.42663920e-05	1.14984680e-07	4	true
201             	smoothSolver	2.50433400e-04	1.39611970e-06	8	5.81433730e-04	3.27119420e-06	8	false	GAMG	2.39970560e-05	1.13595330e-07	4	true
202             	smoothSolver	2.47240290e-04	1.37840230e-06	8	5.76557050e-04	3.24382950e-06	8	false	GAMG	2.37302360e-05	1.12228910e-07	4	true
203             	smoothSolver	2.44095920e-04	1.36095310e-06	8	5.71719050e-04	3.21662840e-06	8	false	GAMG	2.34671400e-05	1.10887100e-07	4	true
204             	smoothSolver	2.40998110e-04	1.34375460e-06	8	5.66910090e-04	3.18969110e-06	8	false	GAMG	2.32086500e-05	1.09566350e-07	4	true
205             	smoothSolver	2.37947200e-04	1.32681520e-06	8	5.62142870e-04	3.16318510e-06	8	false	GAMG	2.29531760e-05	1.08268500e-07	4	true
206             	smoothSolver	2.34943420e-04	1.31012730e-06	8	5.57417880e-04	3.13703870e-06	8	false	GAMG	2.27008340e-05	1.06991430e-07	4	true
207             	smoothSolver	2.31983900e-04	1.29369320e-06	8	5.52731960e-04	3.11116950e-06	8	false	GAMG	2.24509410e-05	1.05733320e-07	4	true
208             	smoothSolver	2.29066610e-04	1.27749930e-06	8	5.48120180e-04	3.08553960e-06	8	false	GAMG	2.22033580e-05	1.04495210e-07	4	true
209             	smoothSolver	2.26191700e-04	1.26154020e-06	8	5.43562290e-04	3.06010090e-06	8	false	GAMG	2.19582160e-05	1.03275260e-07	4	true