/*--------------------------------*- C++ -*----------------------------------*\
| =========                 |                                                 |
| \\      /  F ield         | OpenFOAM: The Open Source CFD Toolbox           |
|  \\    /   O peration     | Version:  2406                                  |
|   \\  /    A nd           | Website:  www.openfoam.com                      |
|    \\/     M anipulation  |                                                 |
\*---------------------------------------------------------------------------*/
FoamFile
{
    version     2.0;
    format      ascii;
    arch        "LSB;label=32;scalar=64";
    class       surfaceScalarField;
    location    "1544";
    object      phi;
}
// * * * * * * * * * * * * * * * * * * * * * * * * * * * * * * * * * * * * * //

dimensions      [0 3 -1 0 0 0 0];

oriented        oriented;

internalField   nonuniform List<scalar> 
21346
(
-3.3016481e-14
3.3016481e-14
-6.9132378e-14
3.6115897e-14
-8.1114625e-14
1.1982247e-14
-6.5576631e-14
-1.5537994e-14
-3.0381151e-14
-3.519548e-14
1.4630218e-14
-4.5011369e-14
6.149925e-14
-4.6869032e-14
1.0507165e-13
-4.3572402e-14
1.4262878e-13
-3.7557123e-14
1.7316692e-13
-3.0538145e-14
1.9673435e-13
-2.3567427e-14
2.1394276e-13
-1.7208417e-14
2.2564915e-13
-1.1706383e-14
2.327671e-13
-7.11795e-15
2.361652e-13
-3.3981043e-15
2.3661927e-13
-4.5406787e-16
2.3479575e-13
1.8235167e-15
2.3125206e-13
3.543692e-15
2.2644555e-13
4.8065119e-15
2.2074576e-13
5.6997873e-15
2.1444739e-13
6.2983694e-15
2.0778259e-13
6.6647982e-15
2.0093203e-13
6.8505653e-15
1.9403445e-13
6.897582e-15
1.8719481e-13
6.8396382e-15
1.8049106e-13
6.7037501e-15
1.7397971e-13
6.5113513e-15
1.6770039e-13
6.2793179e-15
1.6167956e-13
6.0208332e-15
1.5593345e-13
5.7461093e-15
1.5047047e-13
5.4629808e-15
1.4529307e-13
5.1773906e-15
1.4039929e-13
4.8937841e-15
1.3578386e-13
4.6154281e-15
1.314392e-13
4.3446665e-15
1.2735607e-13
4.083125e-15
1.235242e-13
3.8318744e-15
1.1993264e-13
3.5915596e-15
1.1657013e-13
3.3625024e-15
1.1342535e-13
3.144782e-15
1.1048705e-13
2.9382981e-15
1.0774423e-13
2.7428202e-15
1.0518621e-13
2.558026e-15
1.0280268e-13
2.3835313e-15
1.0058376e-13
2.2189119e-15
9.8520043e-14
2.0637219e-15
9.6602537e-14
1.9175059e-15
9.4822728e-14
1.7798087e-15
9.3172545e-14
1.6501829e-15
9.1644352e-14
1.5281931e-15
9.0230932e-14
1.4134201e-15
8.892547e-14
1.3054625e-15
8.7721532e-14
1.2039382e-15
8.6613046e-14
1.1084854e-15
8.5594284e-14
1.0187619e-15
8.4659839e-14
9.3444554e-16
8.3804605e-14
8.5523333e-16
8.3023765e-14
7.8084067e-16
8.2312764e-14
7.1100054e-16
8.1667301e-14
6.4546255e-16
8.1083309e-14
5.8399193e-16
8.0556941e-14
5.2636853e-16
8.0084555e-14
4.7238585e-16
7.9662705e-14
4.2185004e-16
7.9288126e-14
3.7457898e-16
7.8957724e-14
3.3040143e-16
7.8668568e-14
2.8915613e-16
7.8417877e-14
2.5069108e-16
7.8203014e-14
2.1486278e-16
7.8021479e-14
1.8153554e-16
7.7870898e-14
1.5058088e-16
7.7749021e-14
1.2187697e-16
7.7653712e-14
9.5308065e-17
7.7582948e-14
7.0764074e-17
7.7534808e-14
4.8140105e-17
7.7507472e-14
2.7336084e-17
7.7499216e-14
8.2564101e-18
7.7508406e-14
-9.1903556e-18
7.7533498e-14
-2.5091779e-17
7.7573029e-14
-3.9531795e-17
7.762562e-14
-5.2590925e-17
7.7689967e-14
-6.434648e-17
7.7764839e-14
-7.4872718e-17
7.784908e-14
-8.4240991e-17
7.79416e-14
-9.2519876e-17
7.8041375e-14
-9.9775303e-17
7.8147446e-14
-1.0607065e-16
7.8258912e-14
-1.1146682e-16
7.8374935e-14
-1.1602235e-16
7.8494728e-14
-1.1979345e-16
7.8617562e-14
-1.2283407e-16
7.8742758e-14
-1.2519597e-16
7.8869687e-14
-1.2692875e-16
7.8997767e-14
-1.2807992e-16
7.9126461e-14
-1.286949e-16
7.9255278e-14
-1.2881712e-16
7.9383766e-14
-1.28488e-16
7.9511513e-14
-1.2774703e-16
7.9638145e-14
-1.2663181e-16
7.9763323e-14
-1.2517803e-16
7.9886743e-14
-1.2341961e-16
8.0008132e-14
-1.2138862e-16
8.0127247e-14
-1.1911543e-16
8.0243876e-14
-1.1662869e-16
8.0357831e-14
-1.1395536e-16
8.0468952e-14
-1.1112082e-16
8.0577101e-14
-1.0814886e-16
8.0682163e-14
-1.0506172e-16
8.0784043e-14
-1.018802e-16
8.0882667e-14
-9.8623628e-17
8.0977977e-14
-9.5309977e-17
8.1069933e-14
-9.1955874e-17
8.115851e-14
-8.8576666e-17
8.1243696e-14
-8.5186471e-17
8.1325495e-14
-8.1798224e-17
8.1403919e-14
-7.8423734e-17
8.1478993e-14
-7.5073734e-17
8.1550751e-14
-7.175793e-17
8.1619236e-14
-6.8485057e-17
8.1684499e-14
-6.5262923e-17
8.1746598e-14
-6.2098466e-17
8.1805596e-14
-5.89978e-17
8.1861562e-14
-5.596626e-17
8.1914571e-14
-5.3008456e-17
8.1964699e-14
-5.0128315e-17
8.2012028e-14
-4.7329129e-17
8.2056642e-14
-4.4613593e-17
8.2098626e-14
-4.1983854e-17
8.2138068e-14
-3.944155e-17
8.2175056e-14
-3.6987844e-17
8.220968e-14
-3.4623471e-17
8.2242029e-14
-3.2348768e-17
8.2272193e-14
-3.0163711e-17
8.2300261e-14
-2.8067945e-17
8.2326322e-14
-2.6060821e-17
8.2350463e-14
-2.4141423e-17
8.2372772e-14
-2.2308594e-17
8.2393333e-14
-2.0560969e-17
8.2412231e-14
-1.8896993e-17
8.2429546e-14
-1.7314949e-17
8.2445359e-14
-1.581298e-17
8.2459748e-14
-1.4389108e-17
8.2472789e-14
-1.3041256e-17
8.2484557e-14
-1.1767262e-17
8.2495122e-14
-1.0564898e-17
8.2504554e-14
-9.431885e-18
8.251292e-14
-8.3659075e-18
8.2520285e-14
-7.3646237e-18
8.252671e-14
-6.4256805e-18
8.2532257e-14
-5.5467208e-18
8.2536983e-14
-4.7253959e-18
8.2540942e-14
-3.959371e-18
8.2544189e-14
-3.2463355e-18
8.2546773e-14
-2.5840073e-18
8.2548743e-14
-1.9701407e-18
8.2550145e-14
-1.4025294e-18
8.2551024e-14
-8.7901315e-19
8.2551422e-14
-3.9747891e-19
8.2551378e-14
4.4133498e-20
8.255093e-14
4.4783145e-19
8.2550114e-14
8.1556499e-19
8.2548965e-14
1.1492277e-18
8.2547515e-14
1.4506534e-18
8.2545793e-14
1.7216178e-18
8.2543829e-14
1.9638367e-18
8.254165e-14
2.1789673e-18
8.2539282e-14
2.3686074e-18
8.2536747e-14
2.5342974e-18
8.253407e-14
2.6775202e-18
8.253127e-14
2.7997039e-18
8.2528368e-14
2.9022225e-18
8.2525381e-14
2.9863995e-18
8.2522328e-14
3.0535098e-18
8.2519223e-14
3.1047837e-18
8.2516081e-14
3.1414113e-18
8.2512917e-14
3.1645479e-18
8.2509741e-14
3.1753206e-18
8.2506567e-14
3.174837e-18
8.2503402e-14
3.1641968e-18
8.2500258e-14
3.1445051e-18
8.2497141e-14
3.1168921e-18
8.2494058e-14
3.0825364e-18
8.2491016e-14
3.0426994e-18
8.2488017e-14
2.9987669e-18
8.2485064e-14
2.9523117e-18
8.2482159e-14
2.9051723e-18
8.24793e-14
2.8595719e-18
8.2476481e-14
2.8182793e-18
8.2473697e-14
2.7848548e-18
8.2470933e-14
2.7640102e-18
8.246817e-14
2.762181e-18
8.2465382e-14
2.7884359e-18
8.2462526e-14
2.8559884e-18
8.2459541e-14
2.9847632e-18
8.2456335e-14
3.2058661e-18
8.2452766e-14
3.5686393e-18
8.2448618e-14
4.1481018e-18
8.2443559e-14
5.0585864e-18
8.2436989e-14
6.5701931e-18
8.8548219e-18
-5.6557923e-14
8.9574404e-14
-1.0483525e-13
8.4393225e-14
-9.8491989e-14
5.6389839e-15
-3.8648065e-14
-7.5381918e-14
5.6612403e-14
-1.3045595e-13
1.6754811e-13
-1.5594708e-13
2.7886357e-13
-1.5818448e-13
3.8082266e-13
-1.4553149e-13
4.6832286e-13
-1.2505732e-13
5.3951324e-13
-1.0172853e-13
5.9457329e-13
-7.8627477e-14
6.348116e-13
-5.7446722e-14
6.6206479e-13
-3.8959573e-14
6.7832598e-13
-2.3379143e-14
6.8553167e-13
-1.0603795e-14
6.8545112e-13
-3.7351806e-16
6.7963862e-13
7.6360233e-15
6.6942293e-13
1.3759382e-14
6.5591722e-13
1.8312219e-14
6.4003901e-13
2.1577993e-14
6.225341e-13
2.3803283e-14
6.0400099e-13
2.5197911e-14
5.8491401e-13
2.5937541e-14
5.6564422e-13
2.6167373e-14
5.4647769e-13
2.6006171e-14
5.2763124e-13
2.5550194e-14
5.0926578e-13
2.4876816e-14
4.9149736e-13
2.4047739e-14
4.7440641e-13
2.3111777e-14
4.580453e-13
2.2107225e-14
4.4244443e-13
2.1063854e-14
4.2761725e-13
2.0004565e-14
4.1356428e-13
1.8946758e-14
4.0027626e-13
1.7903447e-14
3.8773675e-13
1.6884175e-14
3.7592412e-13
1.589575e-14
3.6481316e-13
1.4942841e-14
3.5437626e-13
1.4028454e-14
3.4458445e-13
1.3154314e-14
3.3540806e-13
1.2321172e-14
3.2681732e-13
1.1529041e-14
3.1878275e-13
1.077739e-14
3.1127548e-13
1.0065293e-14
3.0426747e-13
9.3915431e-15
2.9773163e-13
8.7547473e-15
2.9164196e-13
8.153393e-15
2.8597357e-13
7.5859033e-15
2.807027e-13
7.050677e-15
2.7580676e-13
6.5461186e-15
2.7126429e-13
6.0706607e-15
2.6705493e-13
5.6227797e-15
2.6315939e-13
5.2010066e-15
2.5955939e-13
4.8039339e-15
2.5623766e-13
4.43022e-15
2.5317783e-13
4.0785913e-15
2.5036443e-13
3.747842e-15
2.4778283e-13
3.4368333e-15
2.4541918e-13
3.1444919e-15
2.4326038e-13
2.869807e-15
2.4129401e-13
2.6118279e-15
2.3950834e-13
2.3696603e-15
2.3789225e-13
2.1424635e-15
2.3643519e-13
1.9294469e-15
2.3512717e-13
1.7298667e-15
2.3395873e-13
1.5430225e-15
2.3292087e-13
1.3682546e-15
2.3200509e-13
1.2049406e-15
2.3120329e-13
1.052493e-15
2.3050779e-13
9.103562e-16
2.2991132e-13
7.7800438e-16
2.2940697e-13
6.5493906e-16
2.2898815e-13
5.4068702e-16
2.2864866e-13
4.3479844e-16
2.2838258e-13
3.3684509e-16
2.281843e-13
2.4641874e-16
2.2804851e-13
1.6312977e-16
2.2797016e-13
8.6605816e-17
2.2794448e-13
1.6490605e-17
2.2796695e-13
-4.7557066e-17
2.2803328e-13
-1.0586432e-16
2.2813943e-13
-1.58745e-16
2.2828159e-13
-2.0650043e-16
2.2845613e-13
-2.4942005e-16
2.2865967e-13
-2.8778196e-16
2.2888901e-13
-3.2185346e-16
2.2914112e-13
-3.5189148e-16
2.294132e-13
-3.7814303e-16
2.2970257e-13
-4.0084548e-16
2.3000678e-13
-4.2022693e-16
2.3032349e-13
-4.3650642e-16
2.3065055e-13
-4.4989423e-16
2.3098595e-13
-4.6059207e-16
2.3132781e-13
-4.6879328e-16
2.3167441e-13
-4.7468302e-16
2.3202416e-13
-4.7843845e-16
2.3237557e-13
-4.8022887e-16
2.327273e-13
-4.8021592e-16
2.330781e-13
-4.785537e-16
2.3342686e-13
-4.7538891e-16
2.3377254e-13
-4.7086105e-16
2.3411423e-13
-4.6510253e-16
2.3445108e-13
-4.5823886e-16
2.3478235e-13
-4.5038877e-16
2.3510739e-13
-4.4166441e-16
2.354256e-13
-4.3217148e-16
2.3573649e-13
-4.2200943e-16
2.3603961e-13
-4.1127164e-16
2.363346e-13
-4.0004555e-16
2.3662113e-13
-3.884129e-16
2.3689896e-13
-3.7644989e-16
2.3716788e-13
-3.6422736e-16
2.3742773e-13
-3.51811e-16
2.3767842e-13
-3.3926153e-16
2.3791986e-13
-3.2663492e-16
2.3815205e-13
-3.1398256e-16
2.3837498e-13
-3.0135146e-16
2.3858869e-13
-2.8878447e-16
2.3879325e-13
-2.7632045e-16
2.3898876e-13
-2.6399449e-16
2.3917534e-13
-2.5183807e-16
2.3935312e-13
-2.3987931e-16
2.3952226e-13
-2.2814308e-16
2.3968295e-13
-2.1665125e-16
2.3983536e-13
-2.0542284e-16
2.3997971e-13
-1.9447422e-16
2.401162e-13
-1.8381924e-16
2.4024506e-13
-1.7346945e-16
2.4036651e-13
-1.6343424e-16
2.4048079e-13
-1.5372096e-16
2.4058813e-13
-1.4433516e-16
2.4068879e-13
-1.3528063e-16
2.40783e-13
-1.2655964e-16
2.4087101e-13
-1.18173e-16
2.4095306e-13
-1.1012021e-16
2.410294e-13
-1.0239961e-16
2.4110027e-13
-9.5008459e-17
2.4116591e-13
-8.7943054e-17
2.4122654e-13
-8.1198845e-17
2.4128242e-13
-7.4770525e-17
2.4133376e-13
-6.8652123e-17
2.4138078e-13
-6.2837087e-17
2.4142371e-13
-5.7318372e-17
2.4146276e-13
-5.2088506e-17
2.4149813e-13
-4.7139668e-17
2.4153003e-13
-4.2463747e-17
2.4155865e-13
-3.8052404e-17
2.4158418e-13
-3.3897125e-17
2.4160681e-13
-2.9989275e-17
2.416267e-13
-2.6320139e-17
2.4164403e-13
-2.2880967e-17
2.4165897e-13
-1.9663008e-17
2.4167167e-13
-1.6657548e-17
2.4168228e-13
-1.3855937e-17
2.4169095e-13
-1.1249618e-17
2.4169781e-13
-8.8301464e-18
2.4170299e-13
-6.5892164e-18
2.4170663e-13
-4.5186742e-18
2.4170885e-13
-2.6105361e-18
2.4170975e-13
-8.569987e-19
2.4170945e-13
7.4954743e-19
2.4170804e-13
2.2165125e-18
2.4170564e-13
3.5510971e-18
2.4170233e-13
4.7602911e-18
2.416982e-13
5.8508675e-18
2.4169334e-13
6.8293843e-18
2.4168782e-13
7.7021811e-18
2.4168171e-13
8.4753824e-18
2.4167509e-13
9.1548979e-18
2.4166802e-13
9.7464286e-18
2.4166056e-13
1.025547e-17
2.4165278e-13
1.068732e-17
2.4164472e-13
1.104709e-17
2.4163643e-13
1.1339709e-17
2.4162797e-13
1.1569946e-17
2.4161936e-13
1.1742418e-17
2.4161067e-13
1.1861618e-17
2.4160191e-13
1.1931933e-17
2.4159313e-13
1.1957683e-17
2.4158435e-13
1.1943158e-17
2.415756e-13
1.1892673e-17
2.4156691e-13
1.1810633e-17
2.4155829e-13
1.1701624e-17
2.4154976e-13
1.1570525e-17
2.4154134e-13
1.1422664e-17
2.4153302e-13
1.1264014e-17
2.4152483e-13
1.1101473e-17
2.4151674e-13
1.0943221e-17
2.4150876e-13
1.0799235e-17
2.4150087e-13
1.0681981e-17
2.4149302e-13
1.0607417e-17
2.4148519e-13
1.0596413e-17
2.414773e-13
1.0676822e-17
2.4146927e-13
1.0886485e-17
2.4146098e-13
1.1277592e-17
2.4145226e-13
1.1922687e-17
2.4144291e-13
1.2920711e-17
2.4143266e-13
1.4396965e-17
2.4142122e-13
1.6499554e-17
2.4140841e-13
1.937971e-17
2.2516789e-17
-5.6030028e-14
1.4560443e-13
-6.8541319e-14
9.6904517e-14
-1.3375658e-15
-6.1564769e-14
1.2517222e-13
-2.0189171e-13
2.8182233e-13
-2.8710605e-13
4.4500563e-13
-3.1913038e-13
5.99126e-13
-3.1230486e-13
7.3538911e-13
-2.817946e-13
8.4982234e-13
-2.3949056e-13
9.4155788e-13
-1.9346406e-13
1.0115839e-12
-1.4865347e-13
1.0618983e-12
-1.0776113e-13
1.0949592e-12
-7.202047e-14
1.1133413e-12
-4.176124e-14
1.1195315e-12
-1.6794028e-14
1.1158164e-12
3.3415735e-15
1.1042283e-12
1.9224113e-14
1.0865298e-12
3.1457896e-14
1.0642201e-12
4.0621979e-14
1.0385538e-12
4.7244294e-14
1.0105662e-12
5.1790833e-14
9.811005e-13
5.4663622e-14
9.5083442e-13
5.6203618e-14
9.203057e-13
5.669609e-14
8.8993482e-13
5.6377054e-14
8.6004513e-13
5.5439885e-14
8.308803e-13
5.404164e-14
8.0261922e-13
5.2308822e-14
7.753885e-13
5.0342495e-14
7.4927301e-13
4.8222722e-14
7.243245e-13
4.6012362e-14
7.005688e-13
4.3760264e-14
6.780116e-13
4.1503953e-14
6.5664321e-13
3.9271839e-14
6.3644234e-13
3.7085048e-14
6.1737917e-13
3.4958919e-14
5.994178e-13
3.2904215e-14
5.8251813e-13
3.0928116e-14
5.6663744e-13
2.9035008e-14
5.5173148e-13
2.7227128e-14
5.3775546e-13
2.5505069e-14
5.2466466e-13
2.3868191e-14
5.12415e-13
2.2314944e-14
5.0096343e-13
2.0843117e-14
4.9026813e-13
1.9450044e-14
4.8028877e-13
1.8132754e-14
4.7098658e-13
1.6888094e-14
4.6232444e-13
1.5712821e-14
4.5426689e-13
1.4603667e-14
4.4678015e-13
1.3557399e-14
4.3983208e-13
1.257085e-14
4.3339214e-13
1.1640949e-14
4.2743133e-13
1.0764739e-14
4.2192217e-13
9.9393862e-15
4.1683856e-13
9.1621921e-15
4.1215582e-13
8.4305913e-15
4.078505e-13
7.7421532e-15
4.0390041e-13
7.0945793e-15
4.0028452e-13
6.4856997e-15
3.9698288e-13
5.9134674e-15
3.9397658e-13
5.375953e-15
3.9124771e-13
4.8713384e-15
3.8877924e-13
4.3979102e-15
3.8655506e-13
3.9540536e-15
3.8455983e-13
3.5382454e-15
3.8277904e-13
3.1490485e-15
3.8119888e-13
2.7851051e-15
3.7980624e-13
2.4451318e-15
3.7858868e-13
2.1279137e-15
3.7753438e-13
1.8322995e-15
3.7663213e-13
1.5571967e-15
3.7587125e-13
1.3015675e-15
3.7524162e-13
1.0644243e-15
3.7473364e-13
8.4482674e-16
3.7433818e-13
6.4187764e-16
3.7404659e-13
4.5472032e-16
3.7385066e-13
2.8253576e-16
3.7374261e-13
1.2454009e-16
3.7371507e-13
-2.001759e-17
3.7376106e-13
-1.5185733e-16
3.7387399e-13
-2.7167005e-16
3.7404761e-13
-3.801192e-16
3.7427603e-13
-4.7784208e-16
3.745537e-13
-5.654511e-16
3.7487538e-13
-6.4353489e-16
3.7523615e-13
-7.1265928e-16
3.7563137e-13
-7.7336823e-16
3.7605671e-13
-8.2618452e-16
3.7650809e-13
-8.7161049e-16
3.7698172e-13
-9.101286e-16
3.7747402e-13
-9.4220198e-16
3.7798171e-13
-9.6827496e-16
3.7850169e-13
-9.8877345e-16
3.7903111e-13
-1.0041054e-15
3.7956733e-13
-1.0146612e-15
3.8010792e-13
-1.020814e-15
3.8065062e-13
-1.0229201e-15
3.8119339e-13
-1.0213192e-15
3.8173433e-13
-1.0163351e-15
3.8227175e-13
-1.0082753e-15
3.8280408e-13
-9.9743235e-16
3.8332992e-13
-9.8408318e-16
3.8384802e-13
-9.6849016e-16
3.8435726e-13
-9.5090116e-16
3.8485664e-13
-9.3154998e-16
3.8534528e-13
-9.1065669e-16
3.8582244e-13
-8.8842807e-16
3.8628745e-13
-8.6505794e-16
3.8673977e-13
-8.4072759e-16
3.8717893e-13
-8.156062e-16
3.8760455e-13
-7.8985122e-16
3.8801635e-13
-7.6360881e-16
3.884141e-13
-7.3701424e-16
3.8879766e-13
-7.1019234e-16
3.8916693e-13
-6.8325794e-16
3.895219e-13
-6.5631624e-16
3.8986258e-13
-6.2946331e-16
3.9018904e-13
-6.0278648e-16
3.9050141e-13
-5.7636475e-16
3.9079985e-13
-5.5026925e-16
3.9108453e-13
-5.2456364e-16
3.9135569e-13
-4.9930449e-16
3.9161358e-13
-4.7454174e-16
3.9185848e-13
-4.5031904e-16
3.9209068e-13
-4.2667418e-16
3.923105e-13
-4.0363942e-16
3.9251827e-13
-3.812419e-16
3.9271434e-13
-3.5950397e-16
3.9289907e-13
-3.3844353e-16
3.930728e-13
-3.1807438e-16
3.9323593e-13
-2.9840651e-16
3.9338882e-13
-2.7944643e-16
3.9353184e-13
-2.6119745e-16
3.9366538e-13
-2.4365998e-16
3.9378982e-13
-2.2683177e-16
3.9390552e-13
-2.1070816e-16
3.9401285e-13
-1.9528235e-16
3.941122e-13
-1.8054563e-16
3.9420392e-13
-1.6648753e-16
3.9428836e-13
-1.5309612e-16
3.9436588e-13
-1.403581e-16
3.9443683e-13
-1.2825907e-16
3.9450152e-13
-1.1678363e-16
3.945603e-13
-1.0591554e-16
3.9461347e-13
-9.5637901e-17
3.9466135e-13
-8.5933257e-17
3.9470424e-13
-7.6783718e-17
3.9474242e-13
-6.8171078e-17
3.9477618e-13
-6.0076914e-17
3.9480578e-13
-5.248268e-17
3.9483149e-13
-4.5369788e-17
3.9485355e-13
-3.8719686e-17
3.9487221e-13
-3.2513926e-17
3.9488769e-13
-2.6734219e-17
3.9490022e-13
-2.1362498e-17
3.9491002e-13
-1.6380954e-17
3.9491727e-13
-1.1772085e-17
3.9492218e-13
-7.5187237e-18
3.9492493e-13
-3.6040757e-18
3.9492569e-13
-1.1735768e-20
3.9492463e-13
3.2742859e-18
3.9492191e-13
6.269551e-18
3.9491768e-13
8.9891778e-18
3.9491208e-13
1.1447838e-17
3.9490525e-13
1.3659747e-17
3.9489732e-13
1.5638668e-17
3.948884e-13
1.7397907e-17
3.948786e-13
1.895032e-17
3.9486804e-13
2.0308322e-17
3.9485681e-13
2.1483894e-17
3.9484501e-13
2.24886e-17
3.9483272e-13
2.3333604e-17
3.9482003e-13
2.4029694e-17
3.9480701e-13
2.4587307e-17
3.9479374e-13
2.5016568e-17
3.9478027e-13
2.532733e-17
3.9476668e-13
2.5529227e-17
3.94753e-13
2.5631745e-17
3.947393e-13
2.5644304e-17
3.9472562e-13
2.5576365e-17
3.9471199e-13
2.543757e-17
3.9469845e-13
2.5237912e-17
3.9468504e-13
2.4987972e-17
3.9467176e-13
2.46992e-17
3.9465864e-13
2.4384307e-17
3.9464568e-13
2.4057756e-17
3.9463289e-13
2.3736423e-17
3.9462025e-13
2.3440452e-17
3.9460774e-13
2.3194395e-17
3.9459532e-13
2.3028715e-17
3.9458293e-13
2.2981749e-17
3.9457051e-13
2.3102229e-17
3.9455794e-13
2.3452357e-17
3.9454511e-13
2.4111107e-17
3.9453185e-13
2.5176485e-17
3.9451801e-13
2.6762284e-17
3.9450343e-13
2.8979511e-17
3.9448803e-13
3.1892802e-17
3.9447202e-13
3.5390194e-17
3.851279e-17
-3.0488069e-14
1.760925e-13
4.6419636e-14
1.9996812e-14
2.2134851e-13
-2.3649364e-13
4.3719534e-13
-4.1773854e-13
6.5559266e-13
-5.0550337e-13
8.5678733e-13
-5.2032505e-13
1.0321445e-12
-4.8766207e-13
1.1789649e-12
-4.28615e-13
1.2975165e-12
-3.5804213e-13
1.389523e-12
-2.8547059e-13
1.457419e-12
-2.1654943e-13
1.5039563e-12
-1.5429842e-13
1.5319725e-12
-1.000367e-13
1.5442426e-12
-5.4031323e-14
1.5433816e-12
-1.5933086e-14
1.5317845e-12
1.4938668e-14
1.5115937e-12
3.9414936e-14
1.484689e-12
5.8362614e-14
1.4526917e-12
7.2619239e-14
1.4169791e-12
8.2956991e-14
1.3787042e-12
9.0065717e-14
1.33882e-12
9.4547808e-14
1.2981034e-12
9.6920161e-14
1.2571794e-12
9.7620124e-14
1.216543e-12
9.7013418e-14
1.1765802e-12
9.540276e-14
1.1375854e-12
9.3036412e-14
1.099778e-12
9.0116227e-14
1.0633155e-12
8.6804945e-14
1.0283056e-12
8.3232653e-14
9.9481557e-13
7.9502403e-14
9.6288081e-13
7.5695021e-14
9.3251158e-13
7.1873184e-14
9.0369857e-13
6.8084843e-14
8.7641756e-13
6.4366066e-14
8.5063308e-13
6.0743399e-14
8.2630149e-13
5.7235799e-14
8.0337339e-13
5.3856218e-14
7.817955e-13
5.0612894e-14
7.6151224e-13
4.7510393e-14
7.4246685e-13
4.4550453e-14
7.2460239e-13
4.1732657e-14
7.0786236e-13
3.9054974e-14
6.9219128e-13
3.6514192e-14
6.7753508e-13
3.4106252e-14
6.6384131e-13
3.1826519e-14
6.5105942e-13
2.9669989e-14
6.3914079e-13
2.7631449e-14
6.2803885e-13
2.5705604e-14
6.1770909e-13
2.3887165e-14
6.0810901e-13
2.2170926e-14
5.9919815e-13
2.0551805e-14
5.90938e-13
1.9024889e-14
5.8329194e-13
1.758545e-14
5.7622516e-13
1.6228966e-14
5.6970463e-13
1.4951124e-14
5.6369896e-13
1.3747825e-14
5.5817836e-13
1.2615182e-14
5.5311454e-13
1.1549514e-14
5.4848067e-13
1.0547343e-14
5.4425124e-13
9.6053799e-15
5.4040206e-13
8.7205206e-15
5.3691013e-13
7.8898335e-15
5.3375364e-13
7.1105503e-15
5.3091183e-13
6.3800559e-15
5.28365e-13
5.6958785e-15
5.2609442e-13
5.05568e-15
5.2408231e-13
4.4572467e-15
5.2231174e-13
3.898481e-15
5.2076665e-13
3.3773926e-15
5.1943175e-13
2.8920912e-15
5.1829254e-13
2.4407792e-15
5.1733522e-13
2.0217453e-15
5.1654669e-13
1.633358e-15
5.1591451e-13
1.2740602e-15
5.1542686e-13
9.4236436e-16
5.1507255e-13
6.3684747e-16
5.1484094e-13
3.5614718e-16
5.1472197e-13
9.8957916e-17
5.1470608e-13
-1.3597247e-16
5.1478426e-13
-3.4984583e-16
5.1494796e-13
-5.4381637e-16
5.1518911e-13
-7.1899304e-16
5.155001e-13
-8.7644157e-16
5.1587375e-13
-1.0171864e-15
5.163033e-13
-1.1422125e-15
5.167824e-13
-1.2524667e-15
5.1730507e-13
-1.348859e-15
5.1786573e-13
-1.4322641e-15
5.1845912e-13
-1.5035219e-15
5.1908036e-13
-1.5634388e-15
5.1972487e-13
-1.6127886e-15
5.2038841e-13
-1.6523131e-15
5.2106703e-13
-1.6827228e-15
5.2175706e-13
-1.7046978e-15
5.2245514e-13
-1.7188882e-15
5.2315813e-13
-1.725915e-15
5.2386318e-13
-1.7263705e-15
5.2456767e-13
-1.7208189e-15
5.2526919e-13
-1.709797e-15
5.2596557e-13
-1.6938147e-15
5.2665484e-13
-1.6733557e-15
5.2733523e-13
-1.6488781e-15
5.2800515e-13
-1.6208148e-15
5.2866317e-13
-1.5895744e-15
5.2930806e-13
-1.5555418e-15
5.2993871e-13
-1.5190789e-15
5.3055417e-13
-1.480525e-15
5.3115364e-13
-1.4401978e-15
5.3173643e-13
-1.3983939e-15
5.3230197e-13
-1.3553899e-15
5.328498e-13
-1.3114423e-15
5.3337958e-13
-1.2667893e-15
5.3389104e-13
-1.2216505e-15
5.3438401e-13
-1.1762285e-15
5.348584e-13
-1.130709e-15
5.353142e-13
-1.085262e-15
5.3575146e-13
-1.0400422e-15
5.3617028e-13
-9.951898e-16
5.3657084e-13
-9.5083144e-16
5.3695336e-13
-9.0708068e-16
5.373181e-13
-8.6403881e-16
5.3766535e-13
-8.2179549e-16
5.3799546e-13
-7.804295e-16
5.383088e-13
-7.4000931e-16
5.3860575e-13
-7.0059383e-16
5.3888674e-13
-6.6223296e-16
5.3915221e-13
-6.2496824e-16
5.394026e-13
-5.8883342e-16
5.3963838e-13
-5.5385504e-16
5.3986002e-13
-5.2005301e-16
5.4006802e-13
-4.8744108e-16
5.4026285e-13
-4.5602738e-16
5.40445e-13
-4.2581491e-16
5.4061497e-13
-3.9680199e-16
5.4077325e-13
-3.6898268e-16
5.4092031e-13
-3.4234724e-16
5.4105665e-13
-3.168825e-16
5.4118274e-13
-2.9257221e-16
5.4129904e-13
-2.6939744e-16
5.4140602e-13
-2.4733687e-16
5.4150413e-13
-2.2636711e-16
5.4159381e-13
-2.06463e-16
5.4167549e-13
-1.8759786e-16
5.4174959e-13
-1.6974375e-16
5.4181653e-13
-1.5287171e-16
5.418767e-13
-1.3695192e-16
5.4193048e-13
-1.2195399e-16
5.4197825e-13
-1.0784704e-16
5.4202037e-13
-9.459992e-17
5.4205718e-13
-8.2181347e-17
5.4208902e-13
-7.0560031e-17
5.4211621e-13
-5.9704799e-17
5.4213907e-13
-4.9584699e-17
5.4215787e-13
-4.01691e-17
5.4217292e-13
-3.142777e-17
5.4218448e-13
-2.3330955e-17
5.4219281e-13
-1.5849434e-17
5.4219816e-13
-8.95458e-18
5.4220077e-13
-2.6184017e-18
5.4220085e-13
3.1864191e-18
5.4219864e-13
8.4864951e-18
5.4219432e-13
1.3307712e-17
5.4218809e-13
1.7675212e-17
5.4218014e-13
2.1613386e-17
5.4217063e-13
2.5145867e-17
5.4215973e-13
2.8295527e-17
5.421476e-13
3.1084489e-17
5.4213437e-13
3.3534132e-17
5.4212019e-13
3.566511e-17
5.4210518e-13
3.7497378e-17
5.4208947e-13
3.9050217e-17
5.4207315e-13
4.0342273e-17
5.4205635e-13
4.1391604e-17
5.4203915e-13
4.2215734e-17
5.4202165e-13
4.2831726e-17
5.4200392e-13
4.3256271e-17
5.4198604e-13
4.3505792e-17
5.4196809e-13
4.3596584e-17
5.4195012e-13
4.3544984e-17
5.4193219e-13
4.3367586e-17
5.4191435e-13
4.3081513e-17
5.4189663e-13
4.2704761e-17
5.4187908e-13
4.225664e-17
5.418617e-13
4.1758324e-17
5.4184453e-13
4.1233559e-17
5.4182755e-13
4.070955e-17
5.4181078e-13
4.0218083e-17
5.4179417e-13
3.9796905e-17
5.4177771e-13
3.9491406e-17
5.4176134e-13
3.9356571e-17
5.4174498e-13
3.9459032e-17
5.4172855e-13
3.9878772e-17
5.4171195e-13
4.0709326e-17
5.4169508e-13
4.2053862e-17
5.4167783e-13
4.4011203e-17
5.4166017e-13
4.6641068e-17
5.4164216e-13
4.9896568e-17
5.4162408e-13
5.347601e-17
5.6331861e-17
4.2230913e-14
1.3386159e-13
3.0047127e-13
-2.3824355e-13
6.3435972e-13
-5.7038209e-13
9.4603205e-13
-7.2941087e-13
1.2078787e-12
-7.6735001e-13
1.418941e-12
-7.3138738e-13
1.5856802e-12
-6.5440122e-13
1.7152226e-12
-5.5815745e-13
1.8134873e-12
-4.5630678e-13
1.8851194e-12
-3.5710273e-13
1.93386e-12
-2.6529006e-13
1.9628821e-12
-1.8332046e-13
1.9750004e-12
-1.1215501e-13
1.9727759e-12
-5.1806861e-14
1.9585551e-12
-1.7122697e-15
1.934476e-12
3.9017749e-14
1.902467e-12
7.1423966e-14
1.8642437e-12
9.6585918e-14
1.8213104e-12
1.1555255e-13
1.7749669e-12
1.2930051e-13
1.7263204e-12
1.387122e-13
1.676301e-12
1.4456719e-13
1.6256791e-12
1.4754208e-13
1.5750834e-12
1.4821577e-13
1.5250194e-12
1.4707747e-13
1.4758859e-12
1.4453626e-13
1.4279914e-12
1.409309e-13
1.3815682e-12
1.365394e-13
1.3367852e-12
1.3158794e-13
1.2937589e-12
1.2625894e-13
1.2525632e-12
1.2069815e-13
1.2132373e-12
1.1502091e-13
1.175793e-12
1.0931748e-13
1.1402203e-12
1.0365754e-13
1.1064923e-12
9.8094066e-14
1.0745692e-12
9.2666506e-14
1.0444016e-12
8.7403433e-14
1.015933e-12
8.2324741e-14
9.8910248e-13
7.7443454e-14
9.6384569e-13
7.276719e-14
9.4009678e-13
6.8299365e-14
9.1778927e-13
6.404016e-14
8.9685694e-13
5.9987303e-14
8.7723444e-13
5.6136692e-14
8.5885779e-13
5.2482902e-14
8.4166474e-13
4.9019573e-14
8.25595e-13
4.5739726e-14
8.1059044e-13
4.2636009e-14
7.9659516e-13
3.9700881e-14
7.8355557e-13
3.6926757e-14
7.7142038e-13
3.4306122e-14
7.6014057e-13
3.1831606e-14
7.4966942e-13
2.9496047e-14
7.3996234e-13
2.7292525e-14
7.3097691e-13
2.5214397e-14
7.2267273e-13
2.3255307e-14
7.1501136e-13
2.1409192e-14
7.0795625e-13
1.9670289e-14
7.0147264e-13
1.8033127e-14
6.9552747e-13
1.6492517e-14
6.900893e-13
1.5043548e-14
6.8512825e-13
1.3681572e-14
6.8061589e-13
1.2402191e-14
6.765252e-13
1.1201243e-14
6.7283046e-13
1.007479e-14
6.6950724e-13
9.0191052e-15
6.6653226e-13
8.0306554e-15
6.6388341e-13
7.1060925e-15
6.6153966e-13
6.2422392e-15
6.5948097e-13
5.4360775e-15
6.5768832e-13
4.6847376e-15
6.5614362e-13
3.985488e-15
6.5482964e-13
3.3357256e-15
6.5373003e-13
2.7329672e-15
6.5282925e-13
2.174841e-15
6.5211253e-13
1.6590795e-15
6.5156587e-13
1.1835127e-15
6.5117595e-13
7.4606193e-16
6.5093017e-13
3.447343e-16
6.5081658e-13
-2.2382166e-17
6.5082386e-13
-3.5712311e-16
6.509413e-13
-6.6125193e-16
6.5115877e-13
-9.3646324e-16
6.5146671e-13
-1.1843859e-15
6.5185611e-13
-1.406586e-15
6.5231847e-13
-1.6045694e-15
6.5284578e-13
-1.7797839e-15
6.5343055e-13
-1.9336214e-15
6.540657e-13
-2.0674194e-15
6.5474464e-13
-2.1824626e-15
6.5546119e-13
-2.2799849e-15
6.5620957e-13
-2.3611699e-15
6.5698441e-13
-2.4271527e-15
6.5778071e-13
-2.4790207e-15
6.5859382e-13
-2.5178147e-15
6.5941947e-13
-2.5445303e-15
6.6025367e-13
-2.560118e-15
6.6109278e-13
-2.565485e-15
6.6193346e-13
-2.5614956e-15
6.6277264e-13
-2.5489725e-15
6.6360752e-13
-2.5286973e-15
6.6443557e-13
-2.5014115e-15
6.6525451e-13
-2.4678178e-15
6.6606228e-13
-2.4285806e-15
6.6685703e-13
-2.3843274e-15
6.6763714e-13
-2.3356492e-15
6.6840116e-13
-2.2831023e-15
6.6914785e-13
-2.2272085e-15
6.6987611e-13
-2.1684567e-15
6.7058502e-13
-2.1073039e-15
6.712738e-13
-2.044176e-15
6.7194183e-13
-1.9794691e-15
6.7258859e-13
-1.9135506e-15
6.732137e-13
-1.8467605e-15
6.7381688e-13
-1.7794118e-15
6.7439797e-13
-1.7117927e-15
6.7495687e-13
-1.6441667e-15
6.7549361e-13
-1.5767744e-15
6.7600825e-13
-1.5098342e-15
6.7650096e-13
-1.4435436e-15
6.7697196e-13
-1.3780803e-15
6.7742153e-13
-1.3136031e-15
6.7784998e-13
-1.2502531e-15
6.7825771e-13
-1.1881547e-15
6.7864512e-13
-1.1274165e-15
6.7901266e-13
-1.0681325e-15
6.7936081e-13
-1.0103827e-15
6.7969007e-13
-9.5423448e-16
6.8000098e-13
-8.9974314e-16
6.8029408e-13
-8.4695288e-16
6.8056993e-13
-7.9589767e-16
6.8082909e-13
-7.46602e-16
6.8107214e-13
-6.9908169e-16
6.8129967e-13
-6.533446e-16
6.8151226e-13
-6.0939134e-16
6.8171049e-13
-5.6721593e-16
6.8189495e-13
-5.2680645e-16
6.8206622e-13
-4.8814562e-16
6.8222486e-13
-4.5121139e-16
6.8237144e-13
-4.1597748e-16
6.8250651e-13
-3.8241383e-16
6.8263063e-13
-3.5048714e-16
6.8274433e-13
-3.2016129e-16
6.8284813e-13
-2.913977e-16
6.8294254e-13
-2.6415578e-16
6.8302807e-13
-2.3839327e-16
6.8310518e-13
-2.1406652e-16
6.8317436e-13
-1.9113086e-16
6.8323605e-13
-1.6954079e-16
6.832907e-13
-1.4925032e-16
6.8333873e-13
-1.3021314e-16
6.8338056e-13
-1.1238284e-16
6.8341657e-13
-9.5713112e-17
6.8344714e-13
-8.015789e-17
6.8347264e-13
-6.5671516e-17
6.8349342e-13
-5.2208868e-17
6.8350982e-13
-3.972547e-17
6.8352215e-13
-2.8177596e-17
6.8353071e-13
-1.7522352e-17
6.8353581e-13
-7.7177492e-18
6.8353772e-13
1.2772344e-18
6.8353671e-13
9.5026064e-18
6.8353302e-13
1.6997319e-17
6.8352689e-13
2.3799245e-17
6.8351856e-13
2.994516e-17
6.8350824e-13
3.5470726e-17
6.8349612e-13
4.0410493e-17
6.8348241e-13
4.4797903e-17
6.8346728e-13
4.8665309e-17
6.834509e-13
5.2043989e-17
6.8343343e-13
5.4964186e-17
6.8341503e-13
5.7455147e-17
6.8339582e-13
5.9545173e-17
6.8337595e-13
6.1261688e-17
6.8335554e-13
6.2631317e-17
6.8333469e-13
6.3679989e-17
6.8331351e-13
6.4433059e-17
6.832921e-13
6.491546e-17
6.8327055e-13
6.5151892e-17
6.8324893e-13
6.516706e-17
6.8322731e-13
6.4985959e-17
6.8320575e-13
6.4634243e-17
6.8318432e-13
6.4138672e-17
6.8316305e-13
6.3527675e-17
6.8314198e-13
6.2832039e-17
6.8312112e-13
6.2085762e-17
6.8310051e-13
6.1327075e-17
6.8308012e-13
6.059967e-17
6.8305997e-13
5.9954094e-17
6.8304001e-13
5.9449277e-17
6.8302021e-13
5.9153971e-17
6.8300052e-13
5.9147715e-17
6.8298088e-13
5.9520467e-17
6.8296122e-13
6.0369221e-17
6.8294149e-13
6.1788474e-17
6.8292165e-13
6.3848757e-17
6.8290174e-13
6.6554797e-17
6.8288186e-13
6.9775679e-17
6.8286221e-13
7.3118341e-17
7.5600658e-17
2.7460781e-13
-1.4074622e-13
8.7253772e-13
-8.3617346e-13
1.3727736e-12
-1.070618e-12
1.7282531e-12
-1.0848904e-12
1.9727765e-12
-1.0118735e-12
2.1407228e-12
-8.9933361e-13
2.2567586e-12
-7.7043701e-13
2.3364441e-12
-6.3784297e-13
2.3891555e-12
-5.0901821e-13
2.4206339e-12
-3.8858112e-13
2.4346243e-12
-2.7928044e-13
2.4338222e-12
-1.8251836e-13
2.4203842e-12
-9.871703e-14
2.3961821e-12
-2.7604767e-14
2.3629146e-12
3.1555222e-14
2.3221494e-12
7.9782986e-14
2.2753333e-12
1.1824e-13
2.2237878e-12
1.4813144e-13
2.1687024e-12
1.70638e-13
2.1111314e-12
1.8687145e-13
2.051995e-12
1.9784869e-13
1.992083e-12
2.0447915e-13
1.9320634e-12
2.0756173e-13
1.8724913e-12
2.0778779e-13
1.8138207e-12
2.0574812e-13
1.7564151e-12
2.0194188e-13
1.7005593e-12
1.9678664e-13
1.6464703e-12
1.9062839e-13
1.594307e-12
1.8375123e-13
1.5441796e-12
1.7638638e-13
1.4961575e-12
1.6872024e-13
1.4502768e-12