/*--------------------------------*- C++ -*----------------------------------*\
| =========                 |                                                 |
| \\      /  F ield         | OpenFOAM: The Open Source CFD Toolbox           |
|  \\    /   O peration     | Version:  2406                                  |
|   \\  /    A nd           | Website:  www.openfoam.com                      |
|    \\/     M anipulation  |                                                 |
\*---------------------------------------------------------------------------*/
FoamFile
{
    version     2.0;
    format      ascii;
    arch        "LSB;label=32;scalar=64";
    class       volScalarField;
    location    "1544";
    object      T;
}
// * * * * * * * * * * * * * * * * * * * * * * * * * * * * * * * * * * * * * //

dimensions      [0 0 0 0 0 0 0];

internalField   nonuniform List<scalar> 
10800
(
1
1
1
1
1
1
1
1
1
1
1
1
1
1
1
1
1
1
1
1
1
1
1
1
1
1
1
1
1
1
1
1
1
1
1
1
1
1
1
1
1
1
1
1
1
1
1
1
1
1
1
1
1
1
1
1
1
1
1
1
1
1
1
1
1
1
1
1
1
1
1
1
1
1
1
1
1
1
1
1
1
1
1
1
1
1
1
1
1
1
1
1
1
1
1
1
1
1
1
1
1
1
1
1
1
1
1
1
1
1
1
1
1
1
1
1
1.0000001
1.0000001
1.0000001
1.0000001
1.0000001
1.0000001
1.0000001
1.0000001
1.0000001
1.0000001
1.0000001
1.0000001
1.0000001
1.0000001
1.0000001
1.0000001
1.0000001
1.0000001
1.0000001
1.0000001
1.0000001
1.0000001
1.0000001
1.0000001
1.0000001
1.0000001
1.0000001
1.0000001
1.0000001
1.0000001
1.0000001
1.0000001
1.0000001
1.0000001
1.0000001
1.0000001
1.0000001
1.0000001
1.0000001
1.0000001
1.0000001
1.0000001
1.0000001
1.0000001
1.0000001
1.0000001
1.0000001
1.0000001
1.0000001
1.0000001
1.0000001
1.0000001
1.0000001
1.0000001
1.0000001
1.0000001
1.0000001
1.0000001
1.0000001
1.0000001
1
1
1
1
1
1
1
1
1
1
1
1
1
1
1
1
1
1
1
1
1
1
1
1
1
1
1
1
1
1
1
1
1
1
1
1
1
1
1
1
1
1
1
1
1
1
1
1
1
1
1
1
1
1
1
1
1
1
1
1
1
1
1
1
1
1
1
1
1
1
1
1
1
1
1
1
1
1
1
1
1
1
1
1
1
1
1
1
1
1
1
1
1
1
1
1
1
1
1
1
1
1
1
1
1
1
1
1
1
1
1
1
1
1
1
1
1
1
1
1
1
1
1
1
1
1
1
1
1
1
1
1
1
1
1
1
1
1
1
1
1
1
1
1
1
1
1
1
1
1
1
1
1
1
1
1
1
1
1
1
1
1
1
1
1
1
1
1
1
1
1
1
1
1
1
1
1
1
1
1
1
1
1
1
1
1
1
1
1
1
1
1
1
1
1
1
1
1
1
1
1
1
1
1
1
1
1
1
1
1
1
1
1
1
1
1
1
1
1
1
1
1
1
1
1
1
1
1
1
1
1
1
1
1
1
1
1
1
1
1
1
1
1
1
1
1
1
1
1
1
1
1
1
1
1
1
1
1
1
1
1
1
1
1
1
1
1
1
1
1
1
1
1
1
1
1
1
1
1
1
1
1
1
1
1
1
1
1
1
1
1
1
1
1
1
1
1
1
1
1
1
1
1
1
1
1
1
1
1
1
1
1
1
1
1
1
1
1
1
1
1
1
1
1
1
1
1
1
1
1
1
1
1
1
1
1
1
1
1
1
1
1
1
1
1
1
1
1
1
1
1
1
1
1
1
1
1
1
1
1
1
1
1
1
1
1
1
1
1
1
1
1
1
1
1
1
1
1
1
1
1
1
1
1
1
1
1
1
1
1
1
1
1
1
1
1
1
1
1
1
1
1
1
1
1
1
1
1
1
1
1
1
1
1
1
1
1
1
1
1
1
1
1
1
1
1
1
1
1
1
1
1
1
1
1
1
1
1
1
1
1
1
1
1
1
1
1
1
1
1
1
1
1
1
1
1
1
1
1
1
1
1
1
1
1
1
1
1
1
1
1
1
1
1
1
1
1
1
1
1
1
1
1
1
1
1
1
1
1
1
1
1
1
1
1
1
1
1
1
1
1
1
1
1
1
1
1
1
1
1
1
1
1
1
1
1
1
1
1
1
1
1
1
1
1
1
1
1
1
1
1
1
1
1
1
1
1
1
1
1
1
1
1
1
1
1
1
1
1
1
1
1
1
1
1
1
1
1
1
1
1
1
1
1
1
1
1
1
1
1
1
1
1
1
1
1
1
1
1
1
1
1
1
1
1
1
1
1
1
1
1
1
1
1
1
1
1
1
1
1
1
1
1
1
1
1
1
1
1
1
1
1
1
1
1
1
1
1
1
1
1
1
1
1
1
1
1
1
1
1
1
1
1
1
1
1
1
1
1
1
1
1
1
1
1
1
1
1
1
1
1
1
1
1
1
1
1
1
1
1
1
1
1
1
1
1
1
1
1
1
1
1
1
1
1
1
1
1
1
1
1
1
1
1
1
1
1
1
1
1
1
1
1
1
1
1
1
1
1
1
1
1
1
1
1
1
1
1
1
1
1
1
1
1
1
1
1
1
1
1
1
1
1
1
1
1
1
1
1
1
1
1
1
1
1
1
1
1
1
1
1
1
1
1
1
1
1
1
1
1
1
1
1
1
1
1
1
1
1
1
1
1
1
1
1
1
1
1
1
1
1
1
1
1
1
1
1
1
1
1
1
1
1
1
1
1
1
1
1
1
1
1
1
1
1
1
1
1
1
1
1
1
1
1
1
1
1
1
1
1
1
1
1
1
1
1
1
1
1
1
1
1
1
1
1
1
1
1
1
1
1
1
1
1
1
1
1
1
1
1
1
1
1
1
1
1
1
1
1
1
1
1
1
1
1
1
1
1
1
1
1
1
1
1
1
1
1
1
1
1
1
1
1
1
1
1
1
1
1
1
1
1
1
1
1
1
1
1
1
1
1
1
1
1
1
1
1
1
1
1
1
1
1
1
1
1
1
1
1
1
1
1
1
1
1
1
1
1
1
1
1
1
1
1
1
1
1
1
1
1
1
1
1
1
1
1
1
1
1
1
1
1
1
1
1
1
1
1
1
1
1
1
1
1
1
1
1
1
1
1
1
1
1
1
1
1
1
1
1
1
1
1
1
1
1
1
1
1
1
1
1
1
1
1
1
1
1
1
1
1
1
1
1
1
1
1
1
1
1
1
1
1
1
1
1
1
1
1
1
1
1
1
1
1
1
1
1
1
1
1
1
1
1
1
1
1
1
1
1
1
1
1
1
1
1
1
1
1
1
1
1
1
1
1
1
1
1
1
1
1
1
1
1
1
1
1
1
1
1
1
1
1
1
1
1
1
1
1
1
1
1
1
1
1
1
1
1
1
1
1
1
1
1
1
1
1
1
1
1
1
1
1
1
1
1
1
1
1
1
1
1
1
1
1
1
1
1
1
1
1
1
1
1
1
1
1
1
1
1
1
1
1
1
1
1
1
1
1
1
1
1
1
1
1
1
1
1
1
1
1
1
1
1
1
1
1
1
1
1
1
1
1
1
1
1
1
1
1
1
1
1
1
1
1
1
1
1
1
1
1
1
1
1
1
1
1
1
1
1
1
1
1
1
1
1
1
1
1
1
1
1
1
1
1
1
1
1
1
1
1
1
1
1
1
1
1
1
1
1
1
1
1
1
1
1
1
1
1
1
1
1
1
1
1
1
1
1
1
1
1
1
1
1
1
1
1
1
1
1
1
1
1
1
1
1
1
1
1
1
1
1
1
1
1
1
1
1
1
1
1
1
1
1
1
1
1
1
1
1
1
1
1
1
1
1
1
1
1
1
1
1
1
1
1
1
1
1
1
1
1
1
1
1
1
1
1
1
1
1
1
1
1
1
1
1
1
1
1
1
1
1
1
1
1
1
1
1
1
1
1
1
1
1
1
1
1
1
1
1
1
1
1
1
1
1
1
1
1
1
1
1
1
1
1
1
1
1
1
1
1
1
1
1
1
1
1
1
1
1
1
1
1
1
1
1
1
1
1
1
1
1
1
1
1
1
1
1
1
1
1
1
1
1
1
1
1
1
1
1
1
1
1
1
1
1
1
1
1
1
1
1
1
1
1
1
1
1
1
1
1
1
1
1
1
1
1
1
1
1
1
1
1
1
1
1
1
1
1
1
1
1
1
1
1
1
1
1
1
1
1
1
1
1
1
1
1
1
1
1
1
1
1
1
1
1
1
1
1
1
1
1
1
1
1
1
1
1
1
1
1
1
1
1
1
1
1
1
1
1
1
1
1
1
1
1
1
1
1
1
1
1
1
1
1
1
1
1
1
1
1
1
1
1
1
1
1
1
1
1
1
1
1
1
1
1
1
1
1
1
1
1
1
1
1
1
1
1
1
1
1
1
1
1
1
1
1
1
1
1
1
1
1
1
1
1
1
1
1
1
1
1
1
1
1
1
1
1
1
1
1
1
1
1
1
1
1
1
1
1
1
1
1
1
1
1
1
1
1
1
1
1
1
1
1
1
1
1
1
1
1
1
1
1
1
1
1
1
1
1
1
1
1
1
1
1
1
1
1
1
1
1
1
1
1
1
1
1
1
1
1
1
1
1
1
1
1
1
1
1
1
1
1
1
1
1
1
1
1
1
1
1
1
1
1
1
1
1
1
1
1
1
1
1
1
1
1
1
1
1
1
1
1
1
1
1
1
1
1
1
1
1
1
1
1
1
1
1
1
1
1
1
1
1
1
1
1
1
1
1
1
1
1
1
1
1
1
1
1
1
1
1
1
1
1
1
1
1
1
1
1
1
1
1
1
1
1
1
1
1
1
1
1
1
1
1
1
1
1
1
1
1
1
1
1
1
1
1
1
1
1
1
1
1
1
1
1
1
1
1
1
1
1
1
1
1
1
1
1
1
1
1
1
1
1
1
1
1
1
1
1
1
1
1
1
1
1
1
1
1
1
1
1
1
1
1
1
1
1
1
1
1
1
1
1
1
1
1
1
1
1
1
1
1
1
1
1
1
1
1
1
1
1
1
1
1
1
1
1
1
1
1
1
1
1
1
1
1
1
1
1
1
1
1
1
1
1
1
1
1
1
1
1
1
1
1
1
1
1
1
1
1
1
1
1
1
1
1
1
1
1
1
1
1
1
1
1
1
1
1
1
1
1
1
1
1
1
1
1
1
1
1
1
1
1
1
1
1
1
1
1
1
1
1
1
1
1
1
1
1
1
1
1
1
1
1
1
1
1
1
1
1
1
1
1
1
1
1
1
1
1
1
1
1
1
1
1
1
1
1
1
1
1
1
1
1
1
1
1
1
1
1
1
1
1
1
1
1
1
1
1
1
1
1
1
1
1
1
1
1
1
1
1
1
1
1
1
1
1
1
1
1
1
1
1
1
1
1
1
1
1
1
1
1
1
1
1
1
1
1
1
1
1
1
1
1
1
1
1
1
1
1
1
1
1
1
1
1
1
1
1
1
1
1
1
1
1
1
1
1
1
1
1
1
1
1
1
1
1
1
1
1
1
1
1
1
1
1
1
1
1
1
1
1
1
1
1
1
1
1
1
1
1
1
1
1
1
1
1
1
1
1
1
1
1
1
1
1
1
1
1
1
1
1
1
1
1
1
1
1
1
1
1
1
1
1
1
1
1
1
1
1
1
1
1
1
1
1
1
1
1
1
1
1
1
1
1
1
1
1
1
1
1
1
1
1
1
1
1
1
1
1
1
1
1
1
1
1
1
1
1
1
1
1
1
1
1
1
1
1
1
1
1
1
1
1
1
1
1
1
1
1
1
1
1
1
1
1
1
1
1
1
1
1
1
1
1
1
1
1
1
1
1
1
1
1
1
1
1
1
1
1
1
1
1
1
1
1
1
1
1
1
1
1
1
1
1
1
1
1
1
1
1
1
1
1
1
1
1
1
1
1
1
1
1
1
1
1
1
1
1
1
1
1
1
1
1
1
1
1
1
1
1
1
1
1
1
1
1
1
1
1
1
1
1
1
1
1
1
1
1
1
1
1
1
1
1
1
1
1
1
1
1
1
1
1
1
1
1
1
1
1
1
1
1
1
1
1
1
1
1
1
1
1
1
1
1
1
1
1
1
1
1
1
1
1
1
1
1
1
1
1
1
1
1
1
1
1
1
1
1
1
1
1
1
1
1
1
1
1
1
1
1
1
1
1
1
1
1
1
1
1
1
1
1
1
1
1
1
1
1
1
1
1
1
1
1
1
1
1
1
1
1
1
1
1
1
1
1
1
1
1
1
1
1
1
1
1
1
1
1
1
1
1
1
1
1
1
1
1
1
1
1
1
1
1
1
1
1
1
1
1
1
1
1
1
1
1
1
1
1
1
1
1
1
1
1
1
1
1
1
1
1
1
1
1
1
1
1
1
1
1
1
1
1
1
1
1
1
1
1
1
1
1
1
1
1
1
1
1
1
1
1
1
1
1
1
1
1
1
1
1
1
1
1
1
1
1
1
1
1
1
1
1
1
1
1
1
1
1
1
1
1
1
1
1
1
1
1
1
1
1
1
1
1
1
1
1
1
1
1
1
1
1
1
1
1
1
1
1
1
1
1
1
1
1
1
1
1
1
1
1
1
1
1
1
1
1
1
1
1
1
1
1
1
1
1
1
1
1
1
1
1
1
1
1
1
1
1
1
1
1
1
1
1
1
1
1
1
1
1
1
1
1
1
1
1
1
1
1
1
1
1
1
1
1
1
1
1
1
1
1
1
1
1
1
1
1
1
1
1
1
1
1
1
1
1
1
1
1
1
1
1
1
1
1
1
1
1
1
1
1
1
1
1
1
1
1
1
1
1
1
1
1
1
1
1
1
1
1
1
1
1
1
1
1
1
1
1
1
1
1
1
1
1
1
1
1
1
1
1
1
1
1
1
1
1
1
1
1
1
1
1
1
1
1
1
1
1
1
1
1
1
1
1
1
1
1
1
1
1
1
1
1
1
1
1
1
1
1
1
1
1
1
1
1
1
1
1
1
1
1
1
1
1
1
1
1
1
1
1
1
1
1
1
1
1
1
1
1
1
1
1
1
1
1
1
1
1
1
1
1
1
1
1
1
1
1
1
1
1
1
1
1
1
1
1
1
1
1
1
1
1
1
1
1
1
1
1
1
1
1
1
1
1
1
1
1
1
1
1
1
1
1
1
1
1
1
1
1
1
1
1
1
1
1
1
1
1
1
1
1
1
1
1
1
1
1
1
1
1
1
1
1
1
1
1
1
1
1
1
1
1
1
1
1
1
1
1
1
1
1
1
1
1
1
1
1
1
1
1
1
1
1
1
1
1
1
1
1
1
1
1
1
1
1
1
1
1
1
1
1
1
1
1
1
1
1
1
1
1
1
1
1
1
1
1
1
1
1
1
1
1
1
1
1
1
1
1
1
1
1
1
1
1
1
1
1
1
1
1
1
1
1
1
1
1
1
1
1
1
1
1
1
1
1
1
1
1
1
1
1
1
1
1
1
1
1
1
1
1
1
1
1
1
1
1
1
1
1
1
1
1
1
1
1
1
1
1
1
1
1
1
1
1
1
1
1
1
1
1
1
1
1
1
1
1
1
1
1
1
1
1
1
1
1
1
1
1
1
1
1
1
1
1
1
1
1
1
1
1
1
1
1
1
1
1
1
1
1
1
1
1
1
1
1
1
1
1
1
1
1
1
1
1
1
1
1
1
1
1
1
1
1
1
1
1
1
1
1
1
1
1
1
1
1
1
1
1
1
1
1
1
1
1
0.99999996
0.99999994
0.99999993
0.99999993
0.99999994
0.99999995
0.99999995
0.99999996
0.99999997
0.99999997
0.99999998
0.99999998
0.99999998
0.99999999
0.99999999
0.99999999
0.99999999
0.99999999
1
1
1
1
1
1
1
1
1
1
1
1
1
1
1
1
1
1
1
1
1
1
1
1
1
1
1
1
1
1
1
1
1
1
1
1
1
1
1
1
1
1
1
1
1
1
1
1
1
1
1
1
1
1
1
1
1
1
1
1
1
1
1
1
1
1
1
1
1
1
1
1
1
1
1
1
1
1
1
1
1
1
1
1
1
1
1
1
1
1
1
1
1
1
1
1
1
1
1
1
1
1
1
1
1
1
1
1
1
1
1
1
1
1
1
1
1
1
1
1
1
1
1
1
1
1
1
1
1
1
1
1
1
1
1
1
1
1
1
1
1
1
1
1
1
1
1
1
1
1
1
1
1
1
1
1
1
1
1
1
1
1
1
1
1
1
1
1
1
1
1
1
1
1
1
1
1
1
1
1
1
1
0.99967141
0.99981246
0.99987623
0.99991408
0.99993877
0.99995569
0.99996762
0.99997619
0.9999824
0.99998694
0.99999029
0.99999275
0.99999458
0.99999594
0.99999695
0.99999771
0.99999827
0.9999987
0.99999901
0.99999925
0.99999943
0.99999956
0.99999967
0.99999974
0.9999998
0.99999985
0.99999988
0.99999991
0.99999993
0.99999994
0.99999995
0.99999996
0.99999997
0.99999998
0.99999998
0.99999998
0.99999999
0.99999999
0.99999999
0.99999999
0.99999999
0.99999999
1
1
1
1
1
1
1
1
1
1
1
1
1
1
1
1
1
1
1
1
1
1
1
1
1
1
1
1
1
1
1
1
1
1
1
1
1
1
1
1
1
1
1
1
1
1
1
1
1
1
1
1
1
1
1
1
1
1
1
1
1
1
1
1
1
0.99999999
0.99999999
0.99999999
0.99999999
0.99999999
0.99999999
0.99999999
0.99999999
0.99999999
0.99999999
0.99999999
0.99999999
0.99999999
0.99999999
0.99999999
0.99999999
0.99999999
0.99999999
0.99999999
0.99999999
0.99999999
0.99999999
0.99999999
0.99999999
0.99999999
0.99999999
0.99999999
0.99999999
0.99999999
0.99999999
0.99999998
0.99999998
0.99999998
0.99999998
0.99999998
0.99999998
0.99999998
0.99999998
0.99999998
0.99999998
0.99999998
0.99999998
0.99999998
0.99999998
0.99999998
0.99999998
0.99999998
0.99999998
0.99999998
0.99999998
0.99999998
0.99999998
0.99999998
0.99999998
0.99999998
0.99999998
0.99999998
0.99999998
0.99999998
0.99999998
0.99999998
0.99999998
0.99999998
0.99999998
0.99999998
0.99999998
0.99999998
0.99999998
0.99999998
0.99999998
0.99999998
0.99999998
0.99999998
0.99999998
0.99999998
0.99999998
0.99999998
0.99999998
0.99999998
0.99999998
0.99999998
0.99999998
0.99999998
0.99999998
0.99999998
0.99999998
0.99999998
0.99999998
0.99999998
0.99999998
0.99999998
0.99999998
0.99999998
0.47980596
0.87266266
0.94402362
0.96999519
0.98229997
0.98896603
0.99287469
0.99528573
0.99682511
0.99783253
0.99850412
0.99895832
0.99926907
0.9994837
0.99963314
0.9997379
0.9998118
0.9998642
0.99990154
0.99992828
0.9999475
0.99996139
0.99997147
0.99997881
0.99998417
0.99998812
0.99999103
0.99999319
0.9999948
0.99999601
0.99999691
0.9999976
0.99999812
0.99999852
0.99999883
0.99999906
0.99999925
0.99999939
0.9999995
0.99999959
0.99999966
0.99999972
0.99999976
0.9999998
0.99999983
0.99999986
0.99999988
0.99999989
0.99999991
0.99999992
0.99999993
0.99999994
0.99999994
0.99999995
0.99999995
0.99999996
0.99999996
0.99999996
0.99999997
0.99999997
0.99999997
0.99999997
0.99999997
0.99999998
0.99999998
0.99999998
0.99999998
0.99999998
0.99999998
0.99999998
0.99999998
0.99999998
0.99999998
0.99999998
0.99999998
0.99999998
0.99999998
0.99999998
0.99999998
0.99999998
0.99999998
0.99999998
0.99999998
0.99999998
0.99999998
0.99999998
0.99999998
0.99999998
0.99999998
0.99999998
0.99999998
0.99999998
0.99999998
0.99999998
0.99999998
0.99999997
0.99999997
0.99999997
0.99999997
0.99999997
0.99999997
0.99999997
0.99999996
0.99999996
0.99999996
0.99999996
0.99999996
0.99999995
0.99999995
0.99999995
0.99999995
0.99999994
0.99999994
0.99999994
0.99999994
0.99999994
0.99999993
0.99999993
0.99999993
0.99999993
0.99999993
0.99999992
0.99999992
0.99999992
0.99999992
0.99999992
0.99999992
0.99999991
0.99999991
0.99999991
0.99999991
0.99999991
0.99999991
0.99999991
0.9999999
0.9999999
0.9999999
0.9999999
0.9999999
0.9999999
0.9999999
0.9999999
0.9999999
0.9999999
0.9999999
0.9999999
0.99999989
0.99999989
0.99999989
0.99999989
0.99999989
0.99999989
0.99999989
0.99999989
0.99999989
0.99999989
0.99999989
0.99999989
0.99999989
0.99999989
0.99999989
0.99999989
0.99999989
0.99999989
0.99999989
0.99999989
0.99999989
0.99999989
0.99999989
0.99999989
0.99999989
0.99999989
0.99999989
0.99999989
0.99999989
0.99999989
0.99999989
0.99999989
0.99999989
0.99999989
0.99999989
0.99999989
0.99999989
0.99999989
0.99999989
0.99999989
0.99999989
0.99999989
0.99999989
0.99999988
0.99999988
0.99999988
0.99999988
0.99999988
0.99999988
0.99999988
0.99999988
0.99999988
0.99999988
0.99999988
0.0047217458
0.52286309
0.78426425
0.88207749
0.92897223
0.954681
0.96998243
0.97959821
0.98587272
0.99007916
0.99295629
0.99495463
0.99635942
0.99735658
0.99807008
0.99858405
0.99895641
0.99922756
0.99942589
0.99957157
0.99967898
0.99975848
0.99981753
0.99986155
0.99989448
0.99991921
0.99993785
0.99995196
0.99996267
0.99997084
0.9999771
0.99998192
0.99998564
0.99998853
0.99999079
0.99999255
0.99999394
0.99999504
0.99999592
0.99999662
0.99999718
0.99999763
0.999998
0.9999983
0.99999855
0.99999875
0.99999892
0.99999906
0.99999917
0.99999927
0.99999935
0.99999942
0.99999948
0.99999953
0.99999957
0.99999961
0.99999964
0.99999967
0.99999969
0.99999971
0.99999973
0.99999975
0.99999976
0.99999977
0.99999978
0.99999979
0.9999998
0.99999981
0.99999981
0.99999982
0.99999983
0.99999983
0.99999983
0.99999984
0.99999984
0.99999984
0.99999984
0.99999984
0.99999985
0.99999985
0.99999985
0.99999985
0.99999985
0.99999985
0.99999985
0.99999985
0.99999985
0.99999984
0.99999984
0.99999984
0.99999984
0.99999983
0.99999983
0.99999982
0.99999982
0.99999981
0.9999998
0.9999998
0.99999979
0.99999978
0.99999977
0.99999977
0.99999976
0.99999975
0.99999974
0.99999973
0.99999972
0.99999972
0.99999971
0.9999997
0.99999969
0.99999968
0.99999967
0.99999966
0.99999966
0.99999965
0.99999964
0.99999963
0.99999962
0.99999962
0.99999961
0.9999996
0.99999959
0.99999959
0.99999958
0.99999957
0.99999957
0.99999956
0.99999955
0.99999955
0.99999954
0.99999954
0.99999953
0.99999953
0.99999952
0.99999952
0.99999951
0.99999951
0.99999951
0.9999995
0.9999995
0.9999995
0.99999949
0.99999949
0.99999949
0.99999949
0.99999948
0.99999948
0.99999948
0.99999948
0.99999948
0.99999948
0.99999947
0.99999947
0.99999947
0.99999947
0.99999947
0.99999947
0.99999947
0.99999947
0.99999947
0.99999946
0.99999946
0.99999946
0.99999946
0.99999946
0.99999946
0.99999946
0.99999946
0.99999946
0.99999946
0.99999946
0.99999946
0.99999946
0.99999946
0.99999946
0.99999946
0.99999946
0.99999946
0.99999946
0.99999946
0.99999946
0.99999945
0.99999945
0.99999945
0.99999945
0.99999945
0.99999945
0.99999945
0.99999945
0.99999945
0.99999945
0.99999945
0.99999945
0.99999945
0.99999945
0.99999945
0.99999945
0.99999945
0.99999945
5.3664991e-05
0.0040982058
0.41015369
0.66952031
0.79973364
0.87173442
0.91456356
0.9414484
0.95901264
0.97083833
0.97898617
0.98470187
0.98876903
0.99169658
0.99382377
0.99538155
0.9965299
0.99738127
0.99801558
0.99849029
0.99884698
0.999116
0.99931962
0.99947427
0.99959213
0.99968225
0.9997514
0.99980463
0.99984577
0.99987767
0.9999025
0.9999219
0.99993712
0.9999491
0.99995858
0.99996611
0.99997212
0.99997693
0.9999808
0.99998393
0.99998647
0.99998854
0.99999023
0.99999163
0.99999278
0.99999374
0.99999454
0.99999521
0.99999577
0.99999625
0.99999665
0.99999699
0.99999729
0.99999754
0.99999775
0.99999794
0.9999981
0.99999824
0.99999836
0.99999847
0.99999856
0.99999865
0.99999872
0.99999878
0.99999884
0.99999888
0.99999893
0.99999897
0.999999
0.99999903
0.99999905
0.99999908
0.99999909
0.99999911
0.99999913
0.99999914
0.99999915
0.99999916
0.99999916
0.99999917
0.99999917
0.99999918
0.99999918
0.99999918
0.99999918
0.99999918
0.99999917
0.99999917
0.99999916
0.99999915
0.99999914
0.99999912
0.99999911
0.99999909
0.99999907
0.99999905
0.99999902
0.999999
0.99999898
0.99999895
0.99999892
0.9999989
0.99999887
0.99999884
0.99999881
0.99999878
0.99999875
0.99999873
0.9999987
0.99999867
0.99999864
0.99999861
0.99999858
0.99999855
0.99999852
0.9999985
0.99999847
0.99999844
0.99999842
0.99999839
0.99999837
0.99999834
0.99999832
0.9999983
0.99999828
0.99999826
0.99999824
0.99999822
0.9999982
0.99999818
0.99999816
0.99999815
0.99999813
0.99999812
0.9999981
0.99999809
0.99999808
0.99999806
0.99999805
0.99999804
0.99999803
0.99999802
0.99999801
0.999998
0.999998
0.99999799
0.99999798
0.99999797
0.99999797
0.99999796
0.99999796
0.99999795
0.99999795
0.99999794
0.99999794
0.99999794
0.99999793
0.99999793
0.99999793
0.99999793
0.99999792
0.99999792
0.99999792
0.99999792
0.99999792
0.99999792
0.99999791
0.99999791
0.99999791
0.99999791
0.99999791
0.99999791
0.99999791
0.99999791
0.9999979
0.9999979
0.9999979
0.9999979
0.9999979
0.9999979
0.9999979
0.9999979
0.9999979
0.99999789
0.99999789
0.99999789
0.99999789
0.99999789
0.99999789
0.99999789
0.99999789
0.99999789
0.99999788
0.99999788
0.99999788
0.99999788
0.99999788
0.99999788
0.99999788
0.99999788
2.9065998e-06
2.6104345e-05
0.0031159578
0.3097588
0.55720639
0.7090562
0.80341867
0.8638915
0.90384271
0.93094176
0.94973295
0.96300317
0.97251705
0.97942395
0.98449108
0.9882415
0.99103829
0.99313745
0.99472188
0.99592374
0.99683947
0.99754002
0.99807797
0.99849254
0.99881311
0.99906183
0.99925544
0.99940664
0.99952513
0.99961829
0.9996918
0.99974999
0.99979623
0.99983311
0.99986263
0.99988636
0.9999055
0.999921
0.9999336
0.9999439
0.99995233
0.99995928
0.99996502
0.99996979
0.99997376
0.99997708
0.99997987
0.99998222
0.99998422
0.99998591
0.99998736
0.99998859
0.99998966
0.99999057
0.99999136
0.99999205
0.99999265
0.99999317
0.99999362
0.99999402
0.99999437
0.99999468
0.99999495
0.99999519
0.9999954
0.99999558
0.99999575
0.99999589
0.99999602
0.99999613
0.99999623
0.99999631
0.99999639
0.99999645
0.99999651
0.99999656
0.9999966
0.99999663
0.99999666
0.99999669
0.9999967
0.99999672
0.99999672
0.99999673
0.99999673
0.99999673
0.99999672
0.99999671
0.99999668
0.99999665
0.99999661
0.99999657
0.99999652
0.99999647
0.99999641
0.99999635
0.99999628
0.99999622
0.99999614
0.99999607
0.99999599
0.99999592
0.99999584
0.99999576
0.99999568
0.99999559
0.99999551
0.99999543
0.99999535
0.99999526
0.99999518
0.9999951
0.99999502
0.99999494
0.99999486
0.99999479
0.99999471
0.99999464
0.99999457
0.9999945
0.99999443
0.99999436
0.9999943
0.99999424
0.99999418
0.99999412
0.99999407
0.99999401
0.99999396
0.99999391
0.99999387
0.99999382
0.99999378
0.99999374
0.9999937
0.99999366
0.99999363
0.9999936
0.99999357
0.99999354
0.99999351
0.99999348
0.99999346
0.99999344
0.99999342
0.9999934
0.99999338
0.99999336
0.99999334
0.99999333
0.99999332
0.9999933
0.99999329
0.99999328
0.99999327
0.99999326
0.99999325
0.99999325
0.99999324
0.99999323
0.99999323
0.99999322
0.99999322
0.99999321
0.99999321
0.99999321
0.9999932
0.9999932
0.9999932
0.99999319
0.99999319
0.99999319
0.99999319
0.99999318
0.99999318
0.99999318
0.99999318
0.99999317
0.99999317
0.99999317
0.99999317
0.99999316
0.99999316
0.99999316
0.99999316
0.99999315
0.99999315
0.99999315
0.99999315
0.99999314
0.99999314
0.99999314
0.99999314
0.99999313
0.99999313
0.99999313
0.99999313
0.99999312
0.99999312
0.99999312
9.9549656e-08
6.8193597e-07
1.9846884e-05
0.0023241487
0.23644374
0.46003575
0.62015847
0.73029784
0.80605423
0.85875635
0.89594279
0.92255188
0.94183911
0.95598049
0.96645391
0.97427934
0.98017142
0.98463779
0.98804362
0.99065448
0.99266545
0.99422106
0.99542921
0.99637101
0.99710777
0.99768609
0.99814155
0.99850142
0.9987867
0.99901357
0.9991946
0.99933953
0.99945594
0.99954978
0.99962569
0.9996873
0.99973751
0.99977855
0.99981224
0.99984
0.99986295
0.999882
0.99989787
0.99991114
0.99992229
0.99993168
0.99993962
0.99994636
0.99995211
0.99995702
0.99996123
0.99996485
0.99996798
0.99997069
0.99997304
0.99997509
0.99997688
0.99997845
0.99997982
0.99998103
0.99998209
0.99998303
0.99998386
0.99998459
0.99998523
0.9999858
0.99998631
0.99998676
0.99998715
0.9999875
0.99998781
0.99998808
0.99998831
0.99998852
0.9999887
0.99998885
0.99998898
0.99998909
0.99998918
0.99998925
0.99998931
0.99998935
0.99998938
0.9999894
0.99998941
0.99998941
0.99998939
0.99998936
0.9999893
0.99998922
0.99998913
0.99998902
0.9999889
0.99998876
0.99998862
0.99998846
0.9999883
0.99998812
0.99998794
0.99998776
0.99998757
0.99998737
0.99998717
0.99998697
0.99998676
0.99998656
0.99998635
0.99998615
0.99998594
0.99998574
0.99998553
0.99998533
0.99998513
0.99998494
0.99998475
0.99998456
0.99998437
0.99998419
0.99998402
0.99998385
0.99998368
0.99998352
0.99998337
0.99998322
0.99998307
0.99998293
0.9999828
0.99998267
0.99998254
0.99998243
0.99998231
0.9999822
0.9999821
0.999982
0.99998191
0.99998182
0.99998174
0.99998166
0.99998159
0.99998152
0.99998145
0.99998139
0.99998133
0.99998128
0.99998123
0.99998118
0.99998113
0.99998109
0.99998106
0.99998102
0.99998099
0.99998096
0.99998093
0.9999809
0.99998088
0.99998086
0.99998084
0.99998082
0.99998081
0.99998079
0.99998078
0.99998077
0.99998076
0.99998075
0.99998074
0.99998073
0.99998073
0.99998072
0.99998071
0.99998071
0.9999807
0.9999807
0.99998069
0.99998069
0.99998068
0.99998068
0.99998067
0.99998067
0.99998066
0.99998066
0.99998065
0.99998065
0.99998064
0.99998064
0.99998063
0.99998063
0.99998063
0.99998062
0.99998062
0.99998061
0.99998061
0.9999806
0.9999806
0.99998059
0.99998059
0.99998058
0.99998058
0.99998057
0.99998057
0.99998056
2.1790033e-09
1.2251834e-08
1.1802355e-07
1.5604344e-05
0.0017716814
0.1821644
0.37781416
0.53640815
0.65563715
0.7432433
0.80735743
0.85444619
0.88925741
0.91518618
0.93464559
0.94935548
0.96054975
0.96912103
0.97572074
0.98082837
0.98479975
0.98790097
0.9903324
0.99224588
0.99375711
0.99495475
0.99590703
0.99666667
0.99727461
0.99776269
0.9981558
0.99847345
0.99873095
0.99894039
0.99911129
0.99925123
0.99936621
0.999461
0.99953942
0.99960452
0.99965877
0.99970412
0.99974218
0.99977422
0.9998013
0.99982426
0.99984379
0.99986047
0.99987476
0.99988703
0.99989762
0.99990677
0.99991471
0.99992161
0.99992763
0.9999329
0.99993751
0.99994156
0.99994512
0.99994827
0.99995104
0.9999535
0.99995567
0.99995759
0.9999593
0.99996081
0.99996215
0.99996334
0.99996439
0.99996532
0.99996614
0.99996686
0.99996749
0.99996804
0.99996852
0.99996893
0.99996929
0.99996959
0.99996983
0.99997004
0.9999702
0.99997032
0.99997041
0.99997047
0.9999705
0.9999705
0.99997048
0.9999704
0.99997027
0.9999701
0.99996989
0.99996965
0.99996937
0.99996907
0.99996873
0.99996838
0.999968
0.99996761
0.9999672
0.99996677
0.99996634
0.99996589
0.99996544
0.99996498
0.99996452
0.99996406
0.99996359
0.99996313
0.99996266
0.9999622
0.99996175
0.99996129
0.99996085
0.99996041
0.99995998
0.99995956
0.99995915
0.99995875
0.99995836
0.99995798
0.99995761
0.99995725
0.99995691
0.99995657
0.99995625
0.99995594
0.99995564
0.99995536
0.99995508
0.99995482
0.99995457
0.99995433
0.99995411
0.99995389
0.99995369
0.9999535
0.99995331
0.99995314
0.99995298
0.99995282
0.99995268
0.99995254
0.99995242
0.9999523
0.99995219
0.99995208
0.99995199
0.9999519
0.99995182
0.99995174
0.99995167
0.9999516
0.99995155
0.99995149
0.99995144
0.9999514
0.99995135
0.99995132
0.99995128
0.99995125
0.99995123
0.9999512
0.99995118
0.99995116
0.99995115
0.99995113
0.99995112
0.9999511
0.99995109
0.99995108
0.99995107
0.99995106
0.99995105
0.99995104
0.99995103
0.99995102
0.99995101
0.999951
0.99995099
0.99995099
0.99995098
0.99995097
0.99995096
0.99995095
0.99995095
0.99995094
0.99995093
0.99995092
0.99995091
0.99995091
0.9999509
0.99995089
0.99995088
0.99995087
0.99995086
0.99995085
0.99995084
0.99995083
0.99995082
0.99995082
8.4532557e-11
5.6009145e-10
5.024235e-09
9.2433075e-08
1.2002573e-05
0.0013351898
0.13817606
0.30558498
0.45653988
0.57954697
0.67573708
0.7496889
0.80620965
0.84938829
0.88244894
0.90785343
0.92745639
0.94264882
0.95447432
0.96371801
0.9709729
0.97668899
0.98120938
0.9847969
0.98765383
0.98993653
0.99176633
0.99323778
0.99442479
0.99538535
0.9961651
0.99680008
0.99731878
0.99774387
0.99809335
0.9983816
0.99862013
0.99881818
0.99898315
0.99912102
0.99923665
0.99933393
0.99941607
0.99948563
0.99954476
0.99959517
0.99963829
0.99967529
0.99970714
0.99973464
0.99975846
0.99977914
0.99979715
0.99981287
0.99982664
0.99983871
0.99984933
0.99985868
0.99986694
0.99987424
0.9998807
0.99988643
0.99989151
0.99989603
0.99990003
0.9999036
0.99990676
0.99990957
0.99991206
0.99991426
0.99991621
0.99991793
0.99991944
0.99992075
0.9999219
0.99992289
0.99992374
0.99992446
0.99992507
0.99992556
0.99992596
0.99992627
0.99992649
0.99992665
0.99992673
0.99992675
0.99992671
0.99992656
0.99992631
0.99992596
0.99992553
0.99992502
0.99992444
0.9999238
0.99992311
0.99992236
0.99992157
0.99992075
0.99991989
0.999919
0.99991809
0.99991716
0.99991621
0.99991525
0.99991429
0.99991332
0.99991235
0.99991138
0.99991041
0.99990946
0.99990851
0.99990757
0.99990665
0.99990574
0.99990485
0.99990398
0.99990313
0.9999023
0.9999015
0.99990071
0.99989995
0.99989921
0.9998985
0.99989781
0.99989715
0.99989652
0.99989591
0.99989532
0.99989476
0.99989422
0.99989371
0.99989322
0.99989276
0.99989232
0.9998919
0.99989151
0.99989113
0.99989078
0.99989045
0.99989014
0.99988984
0.99988957
0.99988931
0.99988907
0.99988884
0.99988863
0.99988844
0.99988826
0.99988809
0.99988794
0.99988779
0.99988766
0.99988754
0.99988744
0.99988734
0.99988724
0.99988716
0.99988709
0.99988702
0.99988696
0.99988691
0.99988686
0.99988682
0.99988678
0.99988675
0.99988672
0.9998867
0.99988667
0.99988665
0.99988663
0.99988661
0.99988659
0.99988658
0.99988656
0.99988654
0.99988653
0.99988651
0.9998865
0.99988649
0.99988647
0.99988646
0.99988645
0.99988643
0.99988642
0.99988641
0.99988639
0.99988638
0.99988637
0.99988635
0.99988634
0.99988633
0.99988631
0.9998863
0.99988628
0.99988627
0.99988625
0.99988624
0.99988622
0.99988621
0.99988619
2.1894509e-12
1.2626702e-11
9.4519782e-11
8.9244133e-10
7.3320367e-08
8.7234682e-06
0.00094889122
0.099814833
0.23908008
0.37816875
0.50072949
0.6026248
0.68489257
0.7503231
0.80198115
0.84264279
0.87463301
0.89982627
0.91970424
0.93542622
0.94789492
0.95781202
0.9657231
0.97205291
0.9771328
0.9812219
0.98452338
0.98719699
0.98936866
0.99113797
0.99258384
0.99376901
0.99474347
0.99554716
0.99621208
0.99676392
0.99722337
0.9976071
0.99792863
0.9981989
0.99842682
0.99861963
0.99878327
0.9989226
0.99904159
0.99914354
0.99923116
0.99930668
0.99937197
0.99942857
0.99947778
0.99952068
0.99955818
0.99959102
0.99961987
0.99964526
0.99966765
0.99968743
0.99970494
0.99972046
0.99973423
0.99974646
0.99975734
0.99976702
0.99977564
0.9997833
0.99979013
0.99979619
0.99980158
0.99980636
0.99981058
0.99981432
0.9998176
0.99982048
0.99982298
0.99982515
0.99982702
0.9998286
0.99982993
0.99983103
0.99983192
0.99983261
0.99983312
0.99983347
0.99983367
0.99983374
0.9998337
0.99983342
0.99983295
0.99983228
0.99983144
0.99983045
0.99982932
0.99982807
0.99982671
0.99982525
0.9998237
0.99982208
0.99982039
0.99981865
0.99981686
0.99981503
0.99981318
0.9998113
0.99980941
0.99980751
0.99980561
0.99980372
0.99980183
0.99979996
0.99979812
0.99979629
0.99979449
0.99979273
0.999791
0.99978931
0.99978765
0.99978604
0.99978447
0.99978295
0.99978148
0.99978005
0.99977867
0.99977734
0.99977606
0.99977483
0.99977365
0.99977252
0.99977144
0.9997704
0.99976942
0.99976848
0.99976759
0.99976674
0.99976593
0.99976517
0.99976446
0.99976378
0.99976314
0.99976254
0.99976197
0.99976145
0.99976095
0.99976049
0.99976006
0.99975966
0.99975929
0.99975894
0.99975862
0.99975833
0.99975806
0.99975781
0.99975758
0.99975737
0.99975718
0.99975701
0.99975686
0.99975672
0.99975659
0.99975648
0.99975638
0.9997563
0.99975622
0.99975615
0.99975609
0.99975604
0.999756
0.99975596
0.99975592
0.99975588
0.99975585
0.99975582
0.99975579
0.99975576
0.99975573
0.99975571
0.99975569
0.99975567
0.99975564
0.99975562
0.9997556
0.99975558
0.99975556
0.99975555
0.99975553
0.99975551
0.99975549
0.99975547
0.99975545
0.99975542
0.9997554
0.99975538
0.99975536
0.99975534
0.99975531
0.99975529
0.99975526
0.99975524
0.99975521
0.99975518
6.5427041e-14
3.9362168e-13
3.0302392e-12
2.6262541e-11
3.8519651e-10
5.0066077e-08
5.6557768e-06
0.00061125812
0.066452737
0.17718547
0.30057449
0.41862144
0.52323665
0.61209733
0.68573363
0.74586543
0.79454764
0.83377016
0.86529579
0.89061556
0.91095777
0.92731855
0.94049817
0.95113599
0.95974129
0.9667192
0.9723919
0.97701578
0.98079508
0.98389274
0.98643896
0.988538
0.99027352
0.99171274
0.99290988
0.99390868
0.99474456
0.99544627
0.99603716
0.99653628
0.99695921
0.99731867
0.99762514
0.99788722
0.99811203
0.99830544
0.99847233
0.99861675
0.99874206
0.99885111
0.99894625
0.99902946
0.99910242
0.99916653
0.999223
0.99927284
0.99931691
0.99935594
0.99939056
0.99942132
0.99944868
0.99947303
0.99949473
0.99951407
0.99953131
0.99954668
0.99956038
0.99957257
0.99958342
0.99959305
0.99960159
0.99960913
0.99961578
0.99962161
0.9996267
0.99963111
0.99963491
0.99963814
0.99964087
0.99964312
0.99964494
0.99964637
0.99964745
0.99964819
0.99964864
0.99964881
0.99964874
0.99964827
0.99964741
0.99964619
0.99964465
0.99964282
0.99964072
0.9996384
0.99963586
0.99963314
0.99963026
0.99962724
0.99962409
0.99962085
0.99961752
0.99961412
0.99961067
0.99960718
0.99960366
0.99960013
0.99959661
0.99959309
0.9995896
0.99958613
0.99958271
0.99957933
0.999576
0.99957273
0.99956954
0.99956641
0.99956335
0.99956038
0.99955749
0.99955468
0.99955196
0.99954933
0.99954679
0.99954435
0.99954199
0.99953973
0.99953756
0.99953548
0.99953349
0.99953159
0.99952978
0.99952806
0.99952642
0.99952487
0.99952339
0.999522
0.99952068
0.99951944
0.99951827
0.99951718
0.99951614
0.99951518
0.99951427
0.99951343
0.99951265
0.99951192
0.99951124
0.99951061
0.99951003
0.99950949
0.999509
0.99950855
0.99950814
0.99950776
0.99950742
0.99950711
0.99950683
0.99950658
0.99950636
0.99950616
0.99950598
0.99950582
0.99950569
0.99950557
0.99950547
0.99950538
0.9995053
0.99950523
0.99950517
0.99950511
0.99950505
0.999505
0.99950496
0.99950491
0.99950487
0.99950484
0.9995048
0.99950477
0.99950474
0.99950471
0.99950468
0.99950465
0.99950463
0.9995046
0.99950457
0.99950454
0.99950451
0.99950449
0.99950446
0.99950443
0.99950439
0.99950436
0.99950433
0.99950429
0.99950426
0.99950422
0.99950418
0.99950414
0.9995041
0.99950406
1.4961693e-15
7.4348116e-15
5.1567494e-14
3.8749149e-13
3.8318015e-12
2.4830494e-10
2.8722626e-08
3.1706868e-06
0.00034917295
0.039774214
0.12217413
0.22617735
0.33517558
0.43875797
0.53171098
0.61221
0.68035098
0.7371808
0.78412186
0.82265751
0.85417576
0.87990332
0.90088836
0.91800779
0.93198523
0.94341253
0.95277093
0.96045035
0.96676606