/*--------------------------------*- C++ -*----------------------------------*\
| =========                 |                                                 |
| \\      /  F ield         | OpenFOAM: The Open Source CFD Toolbox           |
|  \\    /   O peration     | Version:  2406                                  |
|   \\  /    A nd           | Website:  www.openfoam.com                      |
|    \\/     M anipulation  |                                                 |
\*---------------------------------------------------------------------------*/
FoamFile
{
    version     2.0;
    format      ascii;
    arch        "LSB;label=32;scalar=64";
    class       volVectorField;
    location    "1544";
    object      U;
}
// * * * * * * * * * * * * * * * * * * * * * * * * * * * * * * * * * * * * * //

dimensions      [0 1 -1 0 0 0 0];

internalField   nonuniform List<vector> 
10800
(
(-2.8552563e-05 2.5358729e-05 0)
(-0.00011637687 2.5918979e-05 0)
(-0.00016930318 1.3102277e-05 0)
(-0.00016441942 -1.1408278e-06 0)
(-0.00010715556 -1.1014729e-05 0)
(-1.8876678e-05 -1.6007847e-05 0)
(8.0575152e-05 -1.7211663e-05 0)
(0.00017734104 -1.6053692e-05 0)
(0.00026340709 -1.3719828e-05 0)
(0.00033516451 -1.1004316e-05 0)
(0.00039186108 -8.3645277e-06 0)
(0.00043436774 -6.0235155e-06 0)
(0.00046434037 -4.0609454e-06 0)
(0.00048370497 -2.4780177e-06 0)
(0.00049436875 -1.2384035e-06 0)
(0.00049807517 -2.9181209e-07 0)
(0.00049634419 4.1364955e-07 0)
(0.00049046048 9.2563867e-07 0)
(0.00048148595 1.2851612e-06 0)
(0.00047028402 1.5263082e-06 0)
(0.00045754703 1.6767451e-06 0)
(0.0004438233 1.7585594e-06 0)
(0.00042954185 1.7891725e-06 0)
(0.00041503419 1.7821926e-06 0)
(0.00040055289 1.7481596e-06 0)
(0.00038628721 1.6951733e-06 0)
(0.000372376 1.6294088e-06 0)
(0.0003589183 1.5555343e-06 0)
(0.00034598191 1.4770451e-06 0)
(0.00033361039 1.3965281e-06 0)
(0.00032182858 1.3158714e-06 0)
(0.00031064705 1.2364272e-06 0)
(0.00030006564 1.1591403e-06 0)
(0.00029007621 1.0846468e-06 0)
(0.00028066485 1.0133512e-06 0)
(0.00027181356 9.4548571e-07 0)
(0.0002635016 8.8115577e-07 0)
(0.00025570646 8.2037474e-07 0)
(0.00024840468 7.6309055e-07 0)
(0.00024157239 7.0920578e-07 0)
(0.00023518581 6.5859273e-07 0)
(0.00022922149 6.1110479e-07 0)
(0.00022365661 5.6658477e-07 0)
(0.00021846908 5.2487105e-07 0)
(0.00021363768 4.8580198e-07 0)
(0.00020914213 4.4921901e-07 0)
(0.00020496307 4.149688e-07 0)
(0.00020108213 3.8290466e-07 0)
(0.00019748188 3.528874e-07 0)
(0.00019414581 3.247857e-07 0)
(0.00019105833 2.9847639e-07 0)
(0.00018820471 2.7384426e-07 0)
(0.00018557102 2.5078195e-07 0)
(0.00018314414 2.2918959e-07 0)
(0.00018091167 2.0897442e-07 0)
(0.00017886193 1.9005042e-07 0)
(0.00017698388 1.7233782e-07 0)
(0.0001752671 1.5576272e-07 0)
(0.00017370174 1.4025661e-07 0)
(0.00017227852 1.25756e-07 0)
(0.00017098865 1.1220196e-07 0)
(0.00016982381 9.9539785e-08 0)
(0.00016877614 8.7718633e-08 0)
(0.00016783821 7.6691169e-08 0)
(0.00016700296 6.6413274e-08 0)
(0.00016626372 5.6843748e-08 0)
(0.00016561417 4.7944055e-08 0)
(0.00016504829 3.9678077e-08 0)
(0.00016456042 3.2011893e-08 0)
(0.00016414514 2.4913583e-08 0)
(0.00016379735 1.8353044e-08 0)
(0.00016351219 1.2301828e-08 0)
(0.00016328505 6.7329928e-09 0)
(0.00016311156 1.6209739e-09 0)
(0.00016298759 -3.0585355e-09 0)
(0.0001629092 -7.3286879e-09 0)
(0.00016287267 -1.1211574e-08 0)
(0.00016287447 -1.4728303e-08 0)
(0.00016291128 -1.7899075e-08 0)
(0.00016297992 -2.074325e-08 0)
(0.00016307743 -2.3279404e-08 0)
(0.00016320096 -2.552537e-08 0)
(0.00016334788 -2.7498279e-08 0)
(0.00016351566 -2.9214595e-08 0)
(0.00016370195 -3.0690143e-08 0)
(0.00016390453 -3.1940143e-08 0)
(0.00016412132 -3.2979229e-08 0)
(0.00016435037 -3.382147e-08 0)
(0.00016458984 -3.4480386e-08 0)
(0.00016483803 -3.4968965e-08 0)
(0.00016509335 -3.5299668e-08 0)
(0.00016535432 -3.5484451e-08 0)
(0.00016561958 -3.5534765e-08 0)
(0.00016588783 -3.5461571e-08 0)
(0.00016615792 -3.5275345e-08 0)
(0.00016642877 -3.4986091e-08 0)
(0.00016669937 -3.4603342e-08 0)
(0.00016696883 -3.4136173e-08 0)
(0.00016723632 -3.3593207e-08 0)
(0.0001675011 -3.2982626e-08 0)
(0.00016776248 -3.2312174e-08 0)
(0.00016801986 -3.158917e-08 0)
(0.00016827271 -3.0820517e-08 0)
(0.00016852053 -3.0012711e-08 0)
(0.00016876293 -2.9171847e-08 0)
(0.00016899952 -2.8303639e-08 0)
(0.00016923 -2.7413421e-08 0)
(0.0001694541 -2.6506163e-08 0)
(0.0001696716 -2.5586481e-08 0)
(0.00016988233 -2.4658651e-08 0)
(0.00017008615 -2.3726619e-08 0)
(0.00017028295 -2.2794012e-08 0)
(0.00017047266 -2.1864154e-08 0)
(0.00017065526 -2.0940077e-08 0)
(0.00017083073 -2.0024533e-08 0)
(0.00017099908 -1.9120008e-08 0)
(0.00017116037 -1.8228734e-08 0)
(0.00017131464 -1.7352702e-08 0)
(0.00017146199 -1.6493676e-08 0)
(0.00017160251 -1.5653201e-08 0)
(0.00017173631 -1.4832623e-08 0)
(0.00017186353 -1.4033095e-08 0)
(0.0001719843 -1.3255591e-08 0)
(0.00017209877 -1.2500919e-08 0)
(0.00017220711 -1.176973e-08 0)
(0.00017230948 -1.106253e-08 0)
(0.00017240605 -1.0379694e-08 0)
(0.000172497 -9.7214693e-09 0)
(0.00017258252 -9.0879931e-09 0)
(0.00017266279 -8.4792966e-09 0)
(0.000172738 -7.8953167e-09 0)
(0.00017280833 -7.3359039e-09 0)
(0.00017287397 -6.8008314e-09 0)
(0.00017293512 -6.2898019e-09 0)
(0.00017299195 -5.8024565e-09 0)
(0.00017304466 -5.3383805e-09 0)
(0.00017309343 -4.8971113e-09 0)
(0.00017313843 -4.4781438e-09 0)
(0.00017317985 -4.0809372e-09 0)
(0.00017321786 -3.7049196e-09 0)
(0.00017325263 -3.3494941e-09 0)
(0.00017328433 -3.0140429e-09 0)
(0.00017331312 -2.6979324e-09 0)
(0.00017333915 -2.4005165e-09 0)
(0.00017336258 -2.1211414e-09 0)
(0.00017338356 -1.8591477e-09 0)
(0.00017340223 -1.6138753e-09 0)
(0.00017341873 -1.3846638e-09 0)
(0.00017343319 -1.170858e-09 0)
(0.00017344574 -9.7180713e-10 0)
(0.0001734565 -7.8686962e-10 0)
(0.0001734656 -6.154124e-10 0)
(0.00017347315 -4.568148e-10 0)
(0.00017347925 -3.1046756e-10 0)
(0.00017348401 -1.7577634e-10 0)
(0.00017348753 -5.2160374e-11 0)
(0.0001734899 6.0944437e-11 0)
(0.00017349122 1.6408712e-10 0)
(0.00017349158 2.5779895e-10 0)
(0.00017349104 3.4259517e-10 0)
(0.00017348969 4.1897273e-10 0)
(0.00017348761 4.8741201e-10 0)
(0.00017348486 5.4837499e-10 0)
(0.00017348152 6.0230715e-10 0)
(0.00017347763 6.4963604e-10 0)
(0.00017347326 6.9077286e-10 0)
(0.00017346847 7.2611133e-10 0)
(0.00017346331 7.5602921e-10 0)
(0.00017345782 7.8088761e-10 0)
(0.00017345205 8.0103236e-10 0)
(0.00017344605 8.1679381e-10 0)
(0.00017343985 8.2848807e-10 0)
(0.0001734335 8.3641738e-10 0)
(0.00017342702 8.4087121e-10 0)
(0.00017342045 8.4212744e-10 0)
(0.00017341381 8.4045345e-10 0)
(0.00017340715 8.3610839e-10 0)
(0.00017340047 8.2934465e-10 0)
(0.0001733938 8.2041172e-10 0)
(0.00017338717 8.0955894e-10 0)
(0.00017338058 7.9704207e-10 0)
(0.00017337407 7.8312884e-10 0)
(0.00017336763 7.6811072e-10 0)
(0.00017336128 7.5231482e-10 0)
(0.00017335502 7.3612622e-10 0)
(0.00017334887 7.200147e-10 0)
(0.00017334281 7.0458122e-10 0)
(0.00017333685 6.9062258e-10 0)
(0.00017333096 6.792419e-10 0)
(0.00017332514 6.7202373e-10 0)
(0.00017331935 6.7134486e-10 0)
(0.00017331353 6.8092566e-10 0)
(0.00017330762 7.0681959e-10 0)
(0.00017330152 7.5923303e-10 0)
(0.00017329506 8.5685011e-10 0)
(0.00017328801 1.036048e-09 0)
(0.00017328006 1.3476254e-09 0)
(0.00017327068 1.8228387e-09 0)
(0.00017325748 2.925731e-09 0)
(0.00017323905 6.2225933e-09 0)
(-4.7432081e-05 0.00012181324 0)
(-0.00019513879 0.00013002509 0)
(-0.00024070727 3.8013061e-05 0)
(-0.00016525325 -6.4689047e-05 0)
(7.3452852e-06 -0.00013809499 0)
(0.00023258728 -0.00017474354 0)
(0.00047205133 -0.0001815306 0)
(0.00069957944 -0.00016885352 0)
(0.00090020827 -0.00014580004 0)
(0.0010672675 -0.00011882327 0)
(0.0011995033 -9.1925283e-05 0)
(0.0012988318 -6.7282759e-05 0)
(0.0013687855 -4.5869775e-05 0)
(0.0014135257 -2.7937661e-05 0)
(0.0014372578 -1.3341247e-05 0)
(0.0014439134 -1.743655e-06 0)
(0.0014369985 7.2632478e-06 0)
(0.0014195431 1.4092319e-05 0)
(0.0013941057 1.9126426e-05 0)
(0.0013628096 2.2704147e-05 0)
(0.0013273908 2.511593e-05 0)
(0.0012892502 2.6605776e-05 0)
(0.0012495042 2.737554e-05 0)
(0.0012090315 2.7590225e-05 0)
(0.0011685142 2.7383385e-05 0)
(0.0011284735 2.6862189e-05 0)
(0.0010893 2.6111955e-05 0)
(0.0010512798 2.5200084e-05 0)
(0.0010146152 2.4179403e-05 0)
(0.00097944212 2.309097e-05 0)
(0.00094584479 2.1966393e-05 0)
(0.00091386702 2.0829738e-05 0)
(0.00088352163 1.9699084e-05 0)
(0.00085479798 1.8587779e-05 0)
(0.00082766789 1.750546e-05 0)
(0.00080209044 1.6458865e-05 0)
(0.00077801567 1.5452486e-05 0)
(0.00075538753 1.4489086e-05 0)
(0.00073414612 1.357011e-05 0)
(0.00071422948 1.2696008e-05 0)
(0.0006955749 1.1866495e-05 0)
(0.00067811994 1.1080745e-05 0)
(0.00066180315 1.033755e-05 0)
(0.00064656462 9.6354385e-06 0)
(0.00063234637 8.97277e-06 0)
(0.00061909257 8.347805e-06 0)
(0.00060674969 7.7587582e-06 0)
(0.00059526663 7.2038386e-06 0)
(0.0005845947 6.6812788e-06 0)
(0.00057468761 6.1893558e-06 0)
(0.00056550141 5.7264056e-06 0)
(0.00055699447 5.2908331e-06 0)
(0.00054912734 4.8811175e-06 0)
(0.00054186267 4.4958153e-06 0)
(0.00053516515 4.1335615e-06 0)
(0.00052900136 3.7930684e-06 0)
(0.00052333966 3.4731238e-06 0)
(0.00051815017 3.1725883e-06 0)
(0.00051340458 2.890392e-06 0)
(0.00050907611 2.6255307e-06 0)
(0.0005051394 2.3770624e-06 0)
(0.00050157045 2.1441031e-06 0)
(0.00049834651 1.9258231e-06 0)
(0.00049544602 1.7214433e-06 0)
(0.00049284854 1.5302312e-06 0)
(0.00049053472 1.3514978e-06 0)
(0.00048848615 1.1845942e-06 0)
(0.00048668541 1.0289084e-06 0)
(0.00048511595 8.8386233e-07 0)
(0.00048376205 7.4890953e-07 0)
(0.00048260881 6.2353231e-07 0)
(0.00048164208 5.0723964e-07 0)
(0.00048084842 3.9956504e-07 0)
(0.00048021509 3.0006469e-07 0)
(0.00047972999 2.0831572e-07 0)
(0.00047938165 1.2391466e-07 0)
(0.00047915919 4.6476043e-08 0)
(0.0004790523 -2.4368832e-08 0)
(0.00047905122 -8.8973033e-08 0)
(0.00047914671 -1.4767499e-07 0)
(0.00047933001 -2.0079939e-07 0)
(0.00047959288 -2.4865794e-07 0)
(0.0004799275 -2.9155005e-07 0)
(0.00048032653 -3.2976339e-07 0)
(0.00048078302 -3.6357444e-07 0)
(0.00048129046 -3.9324899e-07 0)
(0.00048184271 -4.1904253e-07 0)
(0.00048243403 -4.4120063e-07 0)
(0.00048305903 -4.5995921e-07 0)
(0.00048371267 -4.7554488e-07 0)
(0.00048439024 -4.8817512e-07 0)
(0.00048508737 -4.9805858e-07 0)
(0.00048579998 -5.053952e-07 0)
(0.0004865243 -5.1037647e-07 0)
(0.00048725683 -5.1318556e-07 0)
(0.00048799435 -5.1399749e-07 0)
(0.0004887339 -5.1297931e-07 0)
(0.00048947275 -5.1029025e-07 0)
(0.00049020842 -5.0608186e-07 0)
(0.00049093866 -5.0049819e-07 0)
(0.00049166141 -4.9367591e-07 0)
(0.00049237483 -4.8574451e-07 0)
(0.00049307727 -4.7682645e-07 0)
(0.00049376726 -4.6703731e-07 0)
(0.00049444348 -4.5648598e-07 0)
(0.0004951048 -4.4527486e-07 0)
(0.00049575022 -4.3349997e-07 0)
(0.0004963789 -4.2125122e-07 0)
(0.00049699011 -4.0861255e-07 0)
(0.00049758327 -3.9566212e-07 0)
(0.00049815789 -3.8247255e-07 0)
(0.0004987136 -3.6911109e-07 0)
(0.00049925012 -3.5563983e-07 0)
(0.00049976729 -3.4211589e-07 0)
(0.000500265 -3.2859166e-07 0)
(0.00050074322 -3.1511499e-07 0)
(0.00050120202 -3.0172938e-07 0)
(0.00050164151 -2.8847423e-07 0)
(0.00050206185 -2.7538498e-07 0)
(0.00050246329 -2.6249337e-07 0)
(0.00050284608 -2.4982764e-07 0)
(0.00050321055 -2.3741269e-07 0)
(0.00050355704 -2.2527028e-07 0)
(0.00050388595 -2.1341926e-07 0)
(0.00050419768 -2.0187572e-07 0)
(0.00050449268 -1.9065318e-07 0)
(0.00050477139 -1.7976276e-07 0)
(0.00050503429 -1.6921337e-07 0)
(0.00050528188 -1.5901184e-07 0)
(0.00050551464 -1.4916311e-07 0)
(0.00050573309 -1.3967038e-07 0)
(0.00050593773 -1.3053523e-07 0)
(0.00050612909 -1.2175779e-07 0)
(0.00050630766 -1.1333686e-07 0)
(0.00050647398 -1.0527002e-07 0)
(0.00050662854 -9.7553779e-08 0)
(0.00050677185 -9.0183684e-08 0)
(0.00050690442 -8.3154413e-08 0)
(0.00050702673 -7.6459885e-08 0)
(0.00050713928 -7.0093357e-08 0)
(0.00050724252 -6.4047511e-08 0)
(0.00050733693 -5.8314536e-08 0)
(0.00050742297 -5.2886211e-08 0)
(0.00050750106 -4.775397e-08 0)
(0.00050757165 -4.2908973e-08 0)
(0.00050763514 -3.8342166e-08 0)
(0.00050769195 -3.404434e-08 0)
(0.00050774246 -3.0006176e-08 0)
(0.00050778705 -2.6218298e-08 0)
(0.00050782608 -2.2671314e-08 0)
(0.00050785991 -1.9355852e-08 0)
(0.00050788887 -1.6262597e-08 0)
(0.00050791329 -1.3382319e-08 0)
(0.00050793347 -1.0705903e-08 0)
(0.00050794971 -8.2243692e-09 0)
(0.0005079623 -5.9288975e-09 0)
(0.00050797152 -3.8108422e-09 0)
(0.0005079776 -1.8617482e-09 0)
(0.00050798082 -7.3363725e-11 0)
(0.00050798139 1.5623496e-09 0)
(0.00050797955 3.0532086e-09 0)
(0.00050797551 4.4068016e-09 0)
(0.00050796946 5.6304847e-09 0)
(0.0005079616 6.7313797e-09 0)
(0.0005079521 7.716373e-09 0)
(0.00050794114 8.592116e-09 0)
(0.00050792889 9.3650264e-09 0)
(0.00050791548 1.0041291e-08 0)
(0.00050790106 1.062687e-08 0)
(0.00050788576 1.1127503e-08 0)
(0.00050786972 1.1548719e-08 0)
(0.00050785304 1.1895841e-08 0)
(0.00050783584 1.2174002e-08 0)
(0.00050781821 1.2388157e-08 0)
(0.00050780026 1.2543102e-08 0)
(0.00050778206 1.2643495e-08 0)
(0.0005077637 1.2693883e-08 0)
(0.00050774525 1.2698738e-08 0)
(0.00050772679 1.2662501e-08 0)
(0.00050770835 1.2589639e-08 0)
(0.00050769001 1.248472e-08 0)
(0.00050767181 1.2352512e-08 0)
(0.00050765379 1.2198112e-08 0)
(0.00050763597 1.2027118e-08 0)
(0.00050761838 1.1845872e-08 0)
(0.00050760103 1.1661774e-08 0)
(0.00050758393 1.1483736e-08 0)
(0.00050756705 1.132282e-08 0)
(0.00050755038 1.1193152e-08 0)
(0.00050753386 1.1113295e-08 0)
(0.00050751741 1.1108323e-08 0)
(0.00050750093 1.1213061e-08 0)
(0.00050748425 1.1477263e-08 0)
(0.00050746716 1.1973995e-08 0)
(0.00050744938 1.2812992e-08 0)
(0.00050743049 1.4158955e-08 0)
(0.0005074101 1.6252839e-08 0)
(0.00050738764 1.9454962e-08 0)
(0.0005073603 2.4262545e-08 0)
(0.00050732797 2.9959975e-08 0)
(-5.4657068e-05 0.00024037224 0)
(-0.00017518636 0.00020859254 0)
(-0.00010827638 -1.6835999e-05 0)
(0.00010948007 -0.00023898086 0)
(0.00042017367 -0.00038602602 0)
(0.00076571309 -0.00045122161 0)
(0.0011048427 -0.00045314579 0)
(0.001412859 -0.00041493633 0)
(0.0016772986 -0.00035581675 0)
(0.0018937889 -0.00028921228 0)
(0.0020629485 -0.00022345764 0)
(0.0021882423 -0.00016315174 0)
(0.0022745633 -0.00011041712 0)
(0.0023273299 -6.5856367e-05 0)
(0.0023519367 -2.9207845e-05 0)
(0.0023534398 2.3311148e-07 0)
(0.0023363943 2.3358027e-05 0)
(0.0023047898 4.1095115e-05 0)
(0.0022620475 5.4327141e-05 0)
(0.0022110501 6.3852233e-05 0)
(0.002154191 7.0368907e-05 0)
(0.0020934302 7.4474814e-05 0)
(0.0020303529 7.6672794e-05 0)
(0.0019662241 7.7380376e-05 0)
(0.00190204 7.694051e-05 0)
(0.0018385725 7.5632254e-05 0)
(0.0017764093 7.3680752e-05 0)
(0.0017159874 7.1266186e-05 0)
(0.001657622 6.8531596e-05 0)
(0.0016015304 6.5589593e-05 0)
(0.0015478521 6.2528024e-05 0)
(0.0014966654 5.9414716e-05 0)
(0.0014480006 5.6301402e-05 0)
(0.0014018514 5.3226951e-05 0)
(0.0013581835 5.0220014e-05 0)
(0.0013169416 4.7301163e-05 0)
(0.0012780557 4.4484633e-05 0)
(0.001241445 4.1779719e-05 0)
(0.0012070217 3.9191896e-05 0)
(0.001174694 3.6723713e-05 0)
(0.0011443679 3.4375509e-05 0)
(0.0011159489 3.2145973e-05 0)
(0.0010893436 3.0032592e-05 0)
(0.0010644603 2.8031995e-05 0)
(0.0010412096 2.6140224e-05 0)
(0.0010195051 2.435295e-05 0)
(0.00099926362 2.2665628e-05 0)
(0.00098040546 2.1073621e-05 0)
(0.00096285432 1.9572295e-05 0)
(0.00094653744 1.8157081e-05 0)
(0.00093138557 1.6823529e-05 0)
(0.00091733287 1.5567338e-05 0)
(0.0009043168 1.4384381e-05 0)
(0.00089227804 1.327072e-05 0)
(0.00088116033 1.2222606e-05 0)
(0.00087091034 1.1236491e-05 0)
(0.00086147752 1.0309016e-05 0)
(0.00085281396 9.4370152e-06 0)
(0.00084487427 8.6175024e-06 0)
(0.00083761542 7.847667e-06 0)
(0.00083099662 7.1248635e-06 0)
(0.00082497919 6.4466029e-06 0)
(0.00081952645 5.8105428e-06 0)
(0.00081460359 5.2144782e-06 0)
(0.00081017761 4.656332e-06 0)
(0.00080621715 4.1341462e-06 0)
(0.00080269246 3.6460732e-06 0)
(0.0007995753 3.1903679e-06 0)
(0.00079683883 2.7653797e-06 0)
(0.00079445757 2.3695457e-06 0)
(0.00079240734 2.0013838e-06 0)
(0.00079066514 1.6594869e-06 0)
(0.00078920914 1.3425169e-06 0)
(0.00078801864 1.0491999e-06 0)
(0.00078707395 7.7832126e-07 0)
(0.0007863564 5.2872155e-07 0)
(0.0007858483 2.9929254e-07 0)
(0.00078553284 8.8973905e-08 0)
(0.00078539412 -1.0324996e-07 0)
(0.00078541706 -2.7835275e-07 0)
(0.00078558742 -4.3726864e-07 0)
(0.00078589169 -5.808946e-07 0)
(0.00078631716 -7.1009219e-07 0)
(0.00078685179 -8.2568923e-07 0)
(0.00078748425 -9.2848137e-07 0)
(0.00078820388 -1.0192334e-06 0)
(0.00078900063 -1.0986807e-06 0)
(0.00078986509 -1.1675296e-06 0)
(0.00079078842 -1.2264591e-06 0)
(0.00079176235 -1.2761214e-06 0)
(0.00079277916 -1.3171422e-06 0)
(0.00079383163 -1.350122e-06 0)
(0.00079491306 -1.3756362e-06 0)
(0.00079601722 -1.3942362e-06 0)
(0.00079713834 -1.4064493e-06 0)
(0.00079827109 -1.4127795e-06 0)
(0.00079941055 -1.413708e-06 0)
(0.0008005522 -1.4096938e-06 0)
(0.00080169192 -1.4011736e-06 0)
(0.00080282592 -1.3885629e-06 0)
(0.0008039508 -1.3722562e-06 0)
(0.00080506343 -1.3526273e-06 0)
(0.00080616104 -1.3300299e-06 0)
(0.00080724114 -1.3047982e-06 0)
(0.00080830149 -1.2772474e-06 0)
(0.00080934014 -1.2476739e-06 0)
(0.00081035539 -1.2163561e-06 0)
(0.00081134575 -1.1835548e-06 0)
(0.00081230995 -1.149514e-06 0)
(0.00081324694 -1.1144611e-06 0)
(0.00081415583 -1.0786074e-06 0)
(0.00081503594 -1.0421493e-06 0)
(0.00081588672 -1.0052682e-06 0)
(0.00081670779 -9.6813142e-07 0)
(0.00081749891 -9.3089257e-07 0)
(0.00081825995 -8.936924e-07 0)
(0.00081899092 -8.5665921e-07 0)
(0.00081969191 -8.1990947e-07 0)
(0.00082036314 -7.835484e-07 0)
(0.00082100488 -7.4767054e-07 0)
(0.00082161752 -7.1236035e-07 0)
(0.00082220148 -6.7769269e-07 0)
(0.00082275728 -6.4373348e-07 0)
(0.00082328546 -6.1054012e-07 0)
(0.00082378664 -5.7816212e-07 0)
(0.00082426146 -5.4664153e-07 0)
(0.0008247106 -5.160135e-07 0)
(0.00082513478 -4.863067e-07 0)
(0.00082553474 -4.5754387e-07 0)
(0.00082591122 -4.2974217e-07 0)
(0.00082626501 -4.0291369e-07 0)
(0.00082659688 -3.7706584e-07 0)
(0.00082690763 -3.5220174e-07 0)
(0.00082719805 -3.283206e-07 0)
(0.00082746894 -3.054181e-07 0)
(0.00082772107 -2.8348672e-07 0)
(0.00082795525 -2.6251607e-07 0)
(0.00082817225 -2.4249318e-07 0)
(0.00082837284 -2.2340282e-07 0)
(0.00082855776 -2.0522778e-07 0)
(0.00082872778 -1.8794907e-07 0)
(0.00082888361 -1.7154622e-07 0)
(0.00082902596 -1.5599748e-07 0)
(0.00082915554 -1.4128001e-07 0)
(0.00082927301 -1.2737012e-07 0)
(0.00082937905 -1.1424339e-07 0)
(0.00082947427 -1.0187487e-07 0)
(0.00082955931 -9.0239237e-08 0)
(0.00082963476 -7.9310892e-08 0)
(0.0008297012 -6.906412e-08 0)
(0.00082975919 -5.9473187e-08 0)
(0.00082980926 -5.0512445e-08 0)
(0.00082985192 -4.215642e-08 0)
(0.00082988768 -3.4379891e-08 0)
(0.00082991701 -2.7157967e-08 0)
(0.00082994036 -2.0466142e-08 0)
(0.00082995817 -1.4280353e-08 0)
(0.00082997085 -8.5770223e-09 0)
(0.0008299788 -3.3331011e-09 0)
(0.0008299824 1.4739025e-09 0)
(0.000829982 5.8658955e-09 0)
(0.00082997795 9.8641788e-09 0)
(0.00082997057 1.3489433e-08 0)
(0.00082996018 1.6761709e-08 0)
(0.00082994705 1.9700426e-08 0)
(0.00082993147 2.2324365e-08 0)
(0.00082991369 2.4651674e-08 0)
(0.00082989396 2.6699875e-08 0)
(0.00082987252 2.8485874e-08 0)
(0.00082984957 3.0025976e-08 0)
(0.00082982532 3.1335908e-08 0)
(0.00082979997 3.2430842e-08 0)
(0.00082977368 3.3325426e-08 0)
(0.00082974663 3.4033828e-08 0)
(0.00082971897 3.4569778e-08 0)
(0.00082969083 3.4946636e-08 0)
(0.00082966237 3.5177458e-08 0)
(0.00082963368 3.5275102e-08 0)
(0.00082960489 3.5252337e-08 0)
(0.00082957609 3.5122007e-08 0)
(0.00082954737 3.4897219e-08 0)
(0.00082951882 3.4591607e-08 0)
(0.00082949048 3.4219659e-08 0)
(0.00082946242 3.3797153e-08 0)
(0.00082943467 3.3341738e-08 0)
(0.00082940727 3.2873695e-08 0)
(0.00082938022 3.2416966e-08 0)
(0.0008293535 3.200054e-08 0)
(0.00082932708 3.1660357e-08 0)
(0.0008293009 3.1441918e-08 0)
(0.00082927487 3.1403917e-08 0)
(0.00082924884 3.162326e-08 0)
(0.00082922264 3.2201908e-08 0)
(0.00082919602 3.327581e-08 0)
(0.00082916868 3.5024996e-08 0)
(0.00082914028 3.7678444e-08 0)
(0.00082911056 4.1497696e-08 0)
(0.00082907934 4.6728916e-08 0)
(0.00082904415 5.3405243e-08 0)
(0.00082900486 5.985851e-08 0)
(-5.1939179e-05 0.00035821531 0)
(-4.8564929e-05 0.00018140278 0)
(0.00024967177 -0.00023384666 0)
(0.00068509523 -0.00057195066 0)
(0.0011543394 -0.00076382295 0)
(0.0016012998 -0.00082528731 0)
(0.0019992613 -0.00079521923 0)
(0.0023381232 -0.0007110363 0)
(0.0026163375 -0.00060090566 0)
(0.002836487 -0.00048353656 0)
(0.0030031806 -0.00037024774 0)
(0.003122004 -0.00026719256 0)
(0.003198918 -0.00017715392 0)
(0.0032398794 -0.00010083726 0)
(0.0032505914 -3.7744873e-05 0)
(0.0032363426 1.3257546e-05 0)
(0.0032019121 5.3588171e-05 0)
(0.0031515282 8.4731483e-05 0)
(0.0030888658 0.00010811668 0)
(0.0030170672 0.00012505374 0)
(0.0029387804 0.0001367052 0)
(0.0028562064 0.00014407919 0)
(0.0027711507 0.00014803492 0)
(0.0026850746 0.00014929458 0)
(0.002599144 0.00014845822 0)
(0.002514275 0.00014601955 0)
(0.0024311738 0.00014238106 0)
(0.0023503728 0.00013786816 0)
(0.0022722615 0.00013274176 0)
(0.002197113 0.00012720927 0)
(0.0021251066 0.00012143413 0)
(0.0020563463 0.00011554378 0)
(0.0019908769 0.00010963652 0)
(0.0019286967 0.00010378706 0)
(0.0018697684 9.8051229e-05 0)
(0.0018140276 9.2469774e-05 0)
(0.0017613896 8.707151e-05 0)
(0.0017117556 8.1875852e-05 0)
(0.0016650168 7.6894874e-05 0)
(0.0016210581 7.2134971e-05 0)
(0.0015797609 6.7598187e-05 0)
(0.0015410053 6.3283282e-05 0)
(0.0015046719 5.9186569e-05 0)
(0.0014706426 5.5302593e-05 0)
(0.0014388023 5.1624648e-05 0)
(0.0014090388 4.8145191e-05 0)
(0.0013812439 4.4856163e-05 0)
(0.0013553132 4.1749232e-05 0)
(0.0013311468 3.8815978e-05 0)
(0.0013086489 3.6048037e-05 0)
(0.0012877282 3.3437201e-05 0)
(0.0012682974 3.097549e-05 0)
(0.0012502736 2.8655208e-05 0)
(0.0012335779 2.6468973e-05 0)
(0.0012181352 2.4409735e-05 0)
(0.0012038744 2.2470789e-05 0)
(0.0011907278 2.0645775e-05 0)
(0.0011786311 1.8928671e-05 0)
(0.0011675233 1.7313786e-05 0)
(0.0011573466 1.5795746e-05 0)
(0.0011480459 1.4369483e-05 0)
(0.0011395692 1.3030217e-05 0)
(0.0011318668 1.177344e-05 0)
(0.0011248918 1.0594899e-05 0)
(0.0011185993 9.4905828e-06 0)
(0.0011129469 8.456702e-06 0)
(0.0011078943 7.4896766e-06 0)
(0.0011034031 6.5861197e-06 0)
(0.0010994369 5.7428244e-06 0)
(0.001095961 4.9567505e-06 0)
(0.0010929425 4.225012e-06 0)
(0.0010903501 3.5448664e-06 0)
(0.001088154 2.9137039e-06 0)
(0.0010863262 2.3290378e-06 0)
(0.0010848396 1.7884958e-06 0)
(0.0010836689 1.2898124e-06 0)
(0.0010827899 8.3082094e-07 0)
(0.0010821797 4.0944787e-07 0)
(0.0010818164 2.3706402e-08 0)
(0.0010816795 -3.2830855e-07 0)
(0.0010817496 -6.4842524e-07 0)
(0.0010820081 -9.3839926e-07 0)
(0.0010824376 -1.1999171e-06 0)
(0.0010830217 -1.4345995e-06 0)
(0.0010837448 -1.6440041e-06 0)
(0.0010845922 -1.8296284e-06 0)
(0.0010855503 -1.992912e-06 0)
(0.001086606 -2.1352384e-06 0)
(0.0010877472 -2.257937e-06 0)
(0.0010889625 -2.3622849e-06 0)
(0.0010902414 -2.4495077e-06 0)
(0.0010915737 -2.5207814e-06 0)
(0.0010929504 -2.5772333e-06 0)
(0.0010943627 -2.6199433e-06 0)
(0.0010958028 -2.6499447e-06 0)
(0.0010972631 -2.6682254e-06 0)
(0.001098737 -2.6757285e-06 0)
(0.001100218 -2.6733538e-06 0)
(0.0011017004 -2.6619581e-06 0)
(0.0011031791 -2.6423564e-06 0)
(0.0011046491 -2.6153229e-06 0)
(0.0011061061 -2.5815915e-06 0)
(0.0011075463 -2.5418574e-06 0)
(0.001108966 -2.4967772e-06 0)
(0.0011103621 -2.4469706e-06 0)
(0.0011117318 -2.393021e-06 0)
(0.0011130727 -2.3354767e-06 0)
(0.0011143826 -2.2748518e-06 0)
(0.0011156597 -2.2116271e-06 0)
(0.0011169023 -2.1462517e-06 0)
(0.0011181092 -2.0791435e-06 0)
(0.0011192794 -2.0106907e-06 0)
(0.0011204119 -1.9412526e-06 0)
(0.0011215062 -1.8711612e-06 0)
(0.0011225617 -1.8007216e-06 0)
(0.0011235783 -1.730214e-06 0)
(0.0011245557 -1.6598939e-06 0)
(0.0011254941 -1.5899941e-06 0)
(0.0011263936 -1.5207254e-06 0)
(0.0011272545 -1.4522774e-06 0)
(0.0011280773 -1.3848202e-06 0)
(0.0011288623 -1.3185052e-06 0)
(0.0011296103 -1.2534662e-06 0)
(0.0011303219 -1.1898202e-06 0)
(0.0011309979 -1.1276688e-06 0)
(0.0011316389 -1.067099e-06 0)
(0.001132246 -1.0081841e-06 0)
(0.00113282 -9.509848e-07 0)
(0.0011333618 -8.9554999e-07 0)
(0.0011338725 -8.4191762e-07 0)
(0.0011343529 -7.9011559e-07 0)
(0.0011348041 -7.4016254e-07 0)
(0.0011352272 -6.9206859e-07 0)
(0.001135623 -6.4583613e-07 0)
(0.0011359928 -6.0146049e-07 0)
(0.0011363375 -5.5893064e-07 0)
(0.0011366581 -5.1822978e-07 0)
(0.0011369556 -4.7933597e-07 0)
(0.0011372311 -4.4222269e-07 0)
(0.0011374856 -4.068594e-07 0)
(0.00113772 -3.73212e-07 0)
(0.0011379352 -3.4124331e-07 0)
(0.0011381323 -3.1091352e-07 0)
(0.0011383122 -2.8218061e-07 0)
(0.0011384757 -2.5500069e-07 0)
(0.0011386237 -2.2932838e-07 0)
(0.001138757 -2.0511711e-07 0)
(0.0011388766 -1.8231944e-07 0)
(0.0011389831 -1.608873e-07 0)
(0.0011390774 -1.4077227e-07 0)
(0.0011391601 -1.2192578e-07 0)
(0.0011392321 -1.042993e-07 0)
(0.001139294 -8.7844551e-08 0)
(0.0011393464 -7.2513651e-08 0)
(0.00113939 -5.8259248e-08 0)
(0.0011394254 -4.5034658e-08 0)
(0.0011394533 -3.279397e-08 0)
(0.001139474 -2.1492134e-08 0)
(0.0011394883 -1.1085052e-08 0)
(0.0011394965 -1.5296322e-09 0)
(0.0011394992 7.2161461e-09 0)
(0.0011394969 1.5193193e-08 0)
(0.0011394899 2.2441274e-08 0)
(0.0011394787 2.8998987e-08 0)
(0.0011394637 3.4903754e-08 0)
(0.0011394453 4.0191812e-08 0)
(0.0011394238 4.4898212e-08 0)
(0.0011393995 4.9056833e-08 0)
(0.0011393728 5.2700398e-08 0)
(0.0011393439 5.5860504e-08 0)
(0.0011393132 5.8567657e-08 0)
(0.0011392808 6.0851321e-08 0)
(0.0011392471 6.2739974e-08 0)
(0.0011392123 6.4261184e-08 0)
(0.0011391765 6.5441694e-08 0)
(0.00113914 6.6307541e-08 0)
(0.0011391029 6.6884191e-08 0)
(0.0011390655 6.7196712e-08 0)
(0.0011390278 6.7269994e-08 0)
(0.00113899 6.7129028e-08 0)
(0.0011389523 6.6799253e-08 0)
(0.0011389146 6.6307004e-08 0)
(0.0011388773 6.5680088e-08 0)
(0.0011388402 6.4948515e-08 0)
(0.0011388035 6.4145454e-08 0)
(0.0011387671 6.3308451e-08 0)
(0.0011387313 6.2481014e-08 0)
(0.0011386958 6.1714664e-08 0)
(0.0011386607 6.107156e-08 0)
(0.001138626 6.0627862e-08 0)
(0.0011385915 6.0477911e-08 0)
(0.0011385572 6.0739202e-08 0)
(0.0011385228 6.1557669e-08 0)
(0.0011384881 6.3111761e-08 0)
(0.001138453 6.5611063e-08 0)
(0.0011384172 6.9278145e-08 0)
(0.0011383806 7.4290913e-08 0)
(0.0011383434 8.0659972e-08 0)
(0.0011383031 8.7929952e-08 0)
(0.0011382591 9.4010708e-08 0)
(-2.9243781e-05 0.00044482881 0)
(0.00029181541 -7.9120662e-05 0)
(0.00097669843 -0.00071530523 0)
(0.0016840078 -0.0011031709 0)
(0.00229054 -0.0012604922 0)
(0.0027845055 -0.0012567563 0)
(0.0031777196 -0.0011552331 0)
(0.0034857514 -0.0010027913 0)
(0.0037225267 -0.00083050385 0)
(0.0038990061 -0.00065762055 0)
(0.0040237998 -0.00049532631 0)
(0.0041040311 -0.00034949678 0)
(0.0041459172 -0.00022260161 0)
(0.0041550758 -0.00011499389 0)
(0.0041366564 -2.5772466e-05 0)
(0.0040953744 4.6649917e-05 0)
(0.0040355047 0.00010417711 0)
(0.0039608788 0.00014878933 0)
(0.003874879 0.00018240491 0)
(0.0037804475 0.00020680036 0)
(0.0036801073 0.00022357076 0)
(0.0035759908 0.00023411609 0)
(0.003469876 0.00023964366 0)
(0.0033632238 0.00024117985 0)
(0.003257217 0.00023958686 0)
(0.0031527974 0.00023558141 0)
(0.0030507005 0.00022975374 0)
(0.0029514877 0.00022258561 0)
(0.0028555743 0.00021446692 0)
(0.0027632549 0.00020571046 0)
(0.002674725 0.00019656496 0)
(0.0025900996 0.00018722619 0)
(0.0025094289 0.00017784656 0)
(0.0024327121 0.00016854311 0)
(0.0023599081 0.00015940429 0)
(0.0022909449 0.00015049552 0)
(0.0022257272 0.00014186381 0)
(0.0021641427 0.00013354155 0)
(0.0021060668 0.00012554962 0)
(0.0020513671 0.00011789988 0)
(0.0019999061 0.00011059725 0)
(0.0019515444 0.0001036413 0)
(0.001906142 9.7027595e-05 0)
(0.0018635605 9.0748741e-05 0)
(0.0018236637 8.4795213e-05 0)
(0.0017863188 7.9156013e-05 0)
(0.001751397 7.3819183e-05 0)
(0.0017187737 6.8772209e-05 0)
(0.0016883291 6.4002325e-05 0)
(0.001659948 5.9496748e-05 0)
(0.0016335204 5.5242853e-05 0)
(0.0016089408 5.12283e-05 0)
(0.0015861086 4.7441128e-05 0)
(0.0015649279 4.3869812e-05 0)
(0.0015453073 4.0503309e-05 0)
(0.0015271599 3.7331075e-05 0)
(0.0015104028 3.4343075e-05 0)
(0.0014949573 3.1529782e-05 0)
(0.0014807484 2.8882166e-05 0)
(0.001467705 2.6391683e-05 0)
(0.0014557594 2.4050249e-05 0)
(0.0014448471 2.1850227e-05 0)
(0.0014349068 1.9784399e-05 0)
(0.0014258805 1.7845944e-05 0)
(0.0014177126 1.6028413e-05 0)
(0.0014103506 1.4325709e-05 0)
(0.0014037443 1.2732059e-05 0)
(0.001397846 1.1241996e-05 0)
(0.0013926105 9.8503349e-06 0)
(0.0013879946 8.5521564e-06 0)
(0.0013839573 7.342785e-06 0)
(0.0013804597 6.2177731e-06 0)
(0.0013774645 5.172885e-06 0)
(0.0013749367 4.2040815e-06 0)
(0.0013728426 3.307507e-06 0)
(0.0013711505 2.4794767e-06 0)
(0.00136983 1.7164655e-06 0)
(0.0013688527 1.0150977e-06 0)
(0.0013681911 3.7213794e-07 0)
(0.0013678196 -2.1551723e-07 0)
(0.0013677136 -7.5084665e-07 0)
(0.0013678502 -1.2367115e-06 0)
(0.0013682072 -1.6758609e-06 0)
(0.0013687642 -2.070937e-06 0)
(0.0013695016 -2.4244797e-06 0)
(0.0013704009 -2.738931e-06 0)
(0.001371445 -3.0166386e-06 0)
(0.0013726174 -3.2598592e-06 0)
(0.0013739028 -3.4707613e-06 0)
(0.0013752871 -3.6514279e-06 0)
(0.0013767566 -3.8038588e-06 0)
(0.0013782989 -3.9299726e-06 0)
(0.0013799022 -4.0316092e-06 0)
(0.0013815557 -4.1105306e-06 0)
(0.0013832492 -4.1684238e-06 0)
(0.0013849734 -4.2069015e-06 0)
(0.0013867196 -4.2275039e-06 0)
(0.0013884797 -4.2317005e-06 0)
(0.0013902466 -4.2208912e-06 0)
(0.0013920133 -4.196408e-06 0)
(0.0013937738 -4.1595163e-06 0)
(0.0013955225 -4.1114168e-06 0)
(0.0013972543 -4.0532464e-06 0)
(0.0013989647 -3.9860802e-06 0)
(0.0014006496 -3.910933e-06 0)
(0.0014023052 -3.8287607e-06 0)
(0.0014039285 -3.7404623e-06 0)
(0.0014055166 -3.6468812e-06 0)
(0.001407067 -3.548807e-06 0)
(0.0014085777 -3.4469774e-06 0)
(0.0014100467 -3.34208e-06 0)
(0.0014114728 -3.2347535e-06 0)
(0.0014128546 -3.1255904e-06 0)