/*--------------------------------*- C++ -*----------------------------------*\
| =========                 |                                                 |
| \\      /  F ield         | OpenFOAM: The Open Source CFD Toolbox           |
|  \\    /   O peration     | Version:  2406                                  |
|   \\  /    A nd           | Website:  www.openfoam.com                      |
|    \\/     M anipulation  |                                                 |
\*---------------------------------------------------------------------------*/
FoamFile
{
    version     2.0;
    format      ascii;
    arch        "LSB;label=32;scalar=64";
    class       volScalarField;
    location    "1044";
    object      p;
}
// * * * * * * * * * * * * * * * * * * * * * * * * * * * * * * * * * * * * * //

dimensions      [0 2 -2 0 0 0 0];

internalField   nonuniform List<scalar> 
10800
(
1.122902e-05
1.353912e-05
1.9665568e-05
2.8119543e-05
3.6705395e-05
4.418932e-05
5.0065313e-05
5.4270764e-05
5.6980505e-05
5.8465113e-05
5.9007229e-05
5.8860953e-05
5.8236814e-05
5.7300289e-05
5.6176508e-05
5.4957096e-05
5.3707102e-05
5.2471175e-05
5.1278723e-05
5.0147949e-05
4.9088997e-05
4.8106327e-05
4.7200499e-05
4.6369475e-05
4.5609571e-05
4.4916137e-05
4.4284031e-05
4.3707951e-05
4.3182657e-05
4.2703109e-05
4.2264559e-05
4.186259e-05
4.1493146e-05
4.1152524e-05
4.0837368e-05
4.0544652e-05
4.0271655e-05
4.0015935e-05
3.9775311e-05
3.9547832e-05
3.9331758e-05
3.9125536e-05
3.8927782e-05
3.8737262e-05
3.8552874e-05
3.8373636e-05
3.8198673e-05
3.8027201e-05
3.7858522e-05
3.769201e-05
3.7527107e-05
3.7363311e-05
3.7200177e-05
3.7037302e-05
3.6874327e-05
3.6710932e-05
3.6546828e-05
3.6381759e-05
3.6215495e-05
3.604783e-05
3.5878582e-05
3.570759e-05
3.553471e-05
3.5359816e-05
3.5182798e-05
3.500356e-05
3.482202e-05
3.4638107e-05
3.4451762e-05
3.4262938e-05
3.4071596e-05
3.3877707e-05
3.3681249e-05
3.3482211e-05
3.3280587e-05
3.3076378e-05
3.2869592e-05
3.2660243e-05
3.244835e-05
3.2233938e-05
3.2017036e-05
3.1797677e-05
3.1575899e-05
3.1351743e-05
3.1125254e-05
3.0896479e-05
3.0665468e-05
3.0432274e-05
3.0196951e-05
2.9959556e-05
2.9720147e-05
2.9478783e-05
2.9235524e-05
2.8990432e-05
2.8743569e-05
2.8494997e-05
2.8244777e-05
2.7992973e-05
2.7739647e-05
2.748486e-05
2.7228674e-05
2.6971149e-05
2.6712346e-05
2.6452324e-05
2.619114e-05
2.5928852e-05
2.5665516e-05
2.5401184e-05
2.5135912e-05
2.486975e-05
2.4602749e-05
2.4334957e-05
2.4066422e-05
2.3797189e-05
2.3527302e-05
2.3256804e-05
2.2985735e-05
2.2714134e-05
2.2442039e-05
2.2169486e-05
2.1896509e-05
2.162314e-05
2.1349412e-05
2.1075353e-05
2.0800993e-05
2.0526356e-05
2.025147e-05
1.9976357e-05
1.970104e-05
1.942554e-05
1.9149878e-05
1.8874072e-05
1.8598139e-05
1.8322096e-05
1.8045959e-05
1.776974e-05
1.7493454e-05
1.7217113e-05
1.6940728e-05
1.6664309e-05
1.6387867e-05
1.6111409e-05
1.5834945e-05
1.5558481e-05
1.5282024e-05
1.500558e-05
1.4729154e-05
1.4452753e-05
1.4176378e-05
1.3900036e-05
1.3623729e-05
1.3347459e-05
1.3071231e-05
1.2795045e-05
1.2518904e-05
1.2242809e-05
1.1966761e-05
1.1690762e-05
1.1414812e-05
1.1138911e-05
1.086306e-05
1.0587259e-05
1.0311508e-05
1.0035807e-05
9.760154e-06
9.48455e-06
9.2089939e-06
8.9334848e-06
8.6580221e-06
8.3826046e-06
8.1072314e-06
7.8319014e-06
7.5566135e-06
7.2813665e-06
7.0061592e-06
6.7309903e-06
6.4558584e-06
6.1807625e-06
5.9057009e-06
5.6306726e-06
5.355676e-06
5.0807098e-06
4.8057727e-06
4.5308633e-06
4.2559802e-06
3.9811221e-06
3.7062877e-06
3.4314757e-06
3.1566851e-06
2.8819147e-06
2.6071639e-06
2.3324323e-06
2.0577202e-06
1.7830294e-06
1.5083632e-06
1.2337297e-06
9.5914694e-07
6.8463399e-07
4.1017917e-07
1.3617046e-07
1.0091459e-05
1.2688845e-05
1.8557683e-05
2.65378e-05
3.4694234e-05
4.1932005e-05
4.7771168e-05
5.2112037e-05
5.5071877e-05
5.6866677e-05
5.7737041e-05
5.7908657e-05
5.757512e-05
5.6893467e-05
5.5986128e-05
5.4945598e-05
5.3839812e-05
5.2717288e-05
5.1611612e-05
5.054508e-05
4.9531627e-05
4.8579101e-05
4.769101e-05
4.6867837e-05
4.610802e-05
4.5408671e-05
4.4766098e-05
4.4176182e-05
4.3634635e-05
4.3137182e-05
4.2679677e-05
4.2258183e-05
4.1869009e-05
4.1508738e-05
4.1174227e-05
4.0862608e-05
4.0571273e-05
4.0297862e-05
4.0040243e-05
3.9796496e-05
3.9564895e-05
3.9343888e-05
3.9132082e-05
3.8928229e-05
3.8731205e-05
3.8540007e-05
3.8353732e-05
3.817157e-05
3.7992793e-05
3.7816751e-05
3.7642854e-05
3.7470578e-05
3.7299448e-05
3.7129037e-05
3.6958964e-05
3.6788884e-05
3.6618487e-05
3.6447496e-05
3.6275661e-05
3.610276e-05
3.5928591e-05
3.5752977e-05
3.557576e-05
3.5396798e-05
3.5215968e-05
3.503316e-05
3.484828e-05
3.4661246e-05
3.4471988e-05
3.4280447e-05
3.4086575e-05
3.3890334e-05
3.3691693e-05
3.3490632e-05
3.3287136e-05
3.3081199e-05
3.2872823e-05
3.2662012e-05
3.2448781e-05
3.2233146e-05
3.2015131e-05
3.1794763e-05
3.1572075e-05
3.13471e-05
3.111988e-05
3.0890455e-05
3.0658871e-05
3.0425177e-05
3.0189421e-05
2.9951657e-05
2.9711937e-05
2.9470318e-05
2.9226855e-05
2.8981607e-05
2.8734631e-05
2.8485986e-05
2.8235732e-05
2.7983927e-05
2.7730631e-05
2.7475904e-05
2.7219803e-05
2.6962386e-05
2.6703713e-05
2.6443838e-05
2.6182819e-05
2.592071e-05
2.5657564e-05
2.5393436e-05
2.5128375e-05
2.4862432e-05
2.4595657e-05
2.4328095e-05
2.4059794e-05
2.3790798e-05
2.3521149e-05
2.3250889e-05
2.2980058e-05
2.2708693e-05
2.2436833e-05
2.2164512e-05
2.1891764e-05
2.1618621e-05
2.1345114e-05
2.1071272e-05
2.0797123e-05
2.0522693e-05
2.0248007e-05
1.9973089e-05
1.9697961e-05
1.9422645e-05
1.9147159e-05
1.8871524e-05
1.8595755e-05
1.8319871e-05
1.8043885e-05
1.7767812e-05
1.7491665e-05
1.7215457e-05
1.6939199e-05
1.6662902e-05
1.6386575e-05
1.6110227e-05
1.5833866e-05
1.5557501e-05
1.5281137e-05
1.5004782e-05
1.472844e-05
1.4452116e-05
1.4175816e-05
1.3899543e-05
1.36233e-05
1.3347092e-05
1.307092e-05
1.2794787e-05
1.2518695e-05
1.2242645e-05
1.196664e-05
1.169068e-05
1.1414766e-05
1.1138898e-05
1.0863078e-05
1.0587305e-05
1.0311579e-05
1.00359e-05
9.7602679e-06
9.4846823e-06
9.2091426e-06
8.9336481e-06
8.6581981e-06
8.3827918e-06
8.1074281e-06
7.8321063e-06
7.5568251e-06
7.2815835e-06
7.0063805e-06
6.7312147e-06
6.4560851e-06
6.1809904e-06
5.9059294e-06
5.6309007e-06
5.3559032e-06
5.0809356e-06
4.8059966e-06
4.5310849e-06
4.2561993e-06
3.9813386e-06
3.7065017e-06
3.4316875e-06
3.156895e-06
2.8821237e-06
2.607373e-06
2.3326431e-06
2.0579347e-06
1.78325e-06
1.5085927e-06
1.2339705e-06
9.5939875e-07
6.848837e-07
4.1037673e-07
1.3624426e-07
3.727892e-06
8.5269925e-06
1.5839955e-05
2.4545609e-05
3.2998846e-05
4.0341733e-05
4.6246398e-05
5.0684338e-05
5.3789742e-05
5.5769836e-05
5.6848076e-05
5.7233173e-05
5.7105396e-05
5.6612841e-05
5.5872872e-05
5.4975902e-05
5.3989839e-05
5.2964511e-05
5.1935538e-05
5.0927603e-05
4.9957112e-05
4.9034305e-05
4.81649e-05
4.7351365e-05
4.6593878e-05
4.5891047e-05
4.5240455e-05
4.4639046e-05
4.4083417e-05
4.3570017e-05
4.3095292e-05
4.2655776e-05
4.2248158e-05
4.1869317e-05
4.1516343e-05
4.1186543e-05
4.0877443e-05
4.058678e-05
4.031249e-05
4.0052702e-05
3.9805714e-05
3.9569991e-05
3.9344142e-05
3.9126913e-05
3.8917171e-05
3.8713895e-05
3.8516163e-05
3.8323143e-05
3.8134086e-05
3.7948316e-05
3.7765221e-05
3.7584251e-05
3.7404908e-05
3.7226745e-05
3.7049354e-05
3.6872371e-05
3.6695465e-05
3.651834e-05
3.6340727e-05
3.6162384e-05
3.5983096e-05
3.5802667e-05
3.5620924e-05
3.5437711e-05
3.5252892e-05
3.5066343e-05
3.4877957e-05
3.4687642e-05
3.4495316e-05
3.4300909e-05
3.4104365e-05
3.3905633e-05
3.3704675e-05
3.3501462e-05
3.3295972e-05
3.3088189e-05
3.2878108e-05
3.2665726e-05
3.2451051e-05
3.2234093e-05
3.2014868e-05
3.1793398e-05
3.1569709e-05
3.134383e-05
3.1115796e-05
3.0885643e-05
3.0653411e-05
3.0419144e-05
3.0182887e-05
2.9944687e-05
2.9704594e-05
2.9462659e-05
2.9218935e-05
2.8973475e-05
2.8726335e-05
2.8477568e-05
2.8227232e-05
2.7975382e-05
2.7722074e-05
2.7467366e-05
2.7211312e-05
2.6953968e-05
2.6695389e-05
2.6435631e-05
2.6174746e-05
2.5912787e-05
2.5649807e-05
2.5385855e-05
2.5120983e-05
2.4855238e-05
2.4588668e-05
2.4321318e-05
2.4053233e-05
2.3784457e-05
2.3515032e-05
2.3244996e-05
2.2974391e-05
2.2703252e-05
2.2431616e-05
2.2159518e-05
2.1886991e-05
2.1614065e-05
2.1340772e-05
2.1067141e-05
2.0793198e-05
2.0518969e-05
2.024448e-05
1.9969754e-05
1.9694812e-05
1.9419677e-05
1.9144366e-05
1.88689e-05
1.8593295e-05
1.8317567e-05
1.8041733e-05
1.7765805e-05
1.7489798e-05
1.7213724e-05
1.6937594e-05
1.6661419e-05
1.6385209e-05
1.6108972e-05
1.5832717e-05
1.5556452e-05
1.5280184e-05
1.5003918e-05
1.4727661e-05
1.4451418e-05
1.4175194e-05
1.3898992e-05
1.3622816e-05
1.3346671e-05
1.3070558e-05
1.279448e-05
1.2518439e-05
1.2242438e-05
1.1966477e-05
1.1690558e-05
1.1414682e-05
1.1138849e-05
1.0863061e-05
1.0587317e-05
1.0311619e-05
1.0035964e-05
9.7603546e-06
9.4847892e-06
9.2092676e-06
8.9337892e-06
8.6583535e-06
8.3829597e-06
8.107607e-06
7.8322946e-06
7.5570214e-06
7.2817866e-06
7.006589e-06
6.7314276e-06
6.4563012e-06
6.1812088e-06
5.9061492e-06
5.6311212e-06
5.3561237e-06
5.0811554e-06
4.8062153e-06
4.531302e-06
4.2564147e-06
3.981552e-06
3.7067131e-06
3.4318971e-06
3.1571032e-06
2.882331e-06
2.6075801e-06
2.3328511e-06
2.0581447e-06
1.7834632e-06
1.5088098e-06
1.2341907e-06
9.5961865e-07
6.8509167e-07
4.1052236e-07
1.3623889e-07
-8.9719818e-06
8.1257473e-07
1.1830163e-05
2.2634798e-05
3.2152582e-05
3.9930588e-05
4.5951235e-05
5.0385069e-05
5.3466604e-05
5.544376e-05
5.6549989e-05
5.699003e-05
5.6935383e-05
5.6525105e-05
5.5869089e-05
5.5052327e-05
5.4139211e-05
5.3177593e-05
5.2202271e-05
5.1237916e-05
5.0301448e-05
4.9403927e-05
4.8552055e-05
4.7749328e-05
4.6996934e-05
4.6294432e-05
4.5640265e-05
4.5032145e-05
4.4467337e-05
4.3942865e-05
4.3455658e-05
4.3002658e-05
4.258089e-05
4.2187508e-05
4.1819824e-05
4.1475323e-05
4.1151673e-05
4.0846717e-05
4.0558477e-05
4.0285141e-05
4.0025053e-05
3.9776707e-05
3.953873e-05
3.9309879e-05
3.9089022e-05
3.8875135e-05
3.866729e-05
3.8464644e-05
3.8266434e-05
3.8071969e-05
3.7880623e-05
3.7691829e-05
3.7505072e-05
3.7319887e-05
3.7135852e-05
3.6952583e-05
3.6769736e-05
3.6586997e-05
3.6404083e-05
3.6220739e-05
3.6036732e-05
3.5851856e-05
3.5665924e-05
3.5478768e-05
3.5290239e-05
3.5100204e-05
3.4908544e-05
3.4715157e-05
3.4519951e-05
3.4322849e-05
3.4123782e-05
3.3922694e-05
3.3719538e-05
3.3514277e-05
3.3306881e-05
3.3097328e-05
3.2885606e-05
3.2671706e-05
3.2455628e-05
3.2237378e-05
3.2016965e-05
3.1794407e-05
3.1569722e-05
3.1342937e-05
3.111408e-05
3.0883183e-05
3.0650282e-05
3.0415415e-05
3.0178625e-05
2.9939953e-05
2.9699447e-05
2.9457153e-05
2.921312e-05
2.8967399e-05
2.8720042e-05
2.8471099e-05
2.8220625e-05
2.7968672e-05
2.7715294e-05
2.7460545e-05
2.7204478e-05
2.6947146e-05
2.6688602e-05
2.6428899e-05
2.6168088e-05
2.590622e-05
2.5643345e-05
2.5379513e-05
2.5114771e-05
2.4849167e-05
2.4582746e-05
2.4315554e-05
2.4047633e-05
2.3779025e-05
2.3509772e-05
2.3239913e-05
2.2969485e-05
2.2698526e-05
2.2427071e-05
2.2155153e-05
2.1882805e-05
2.1610058e-05
2.1336941e-05
2.1063484e-05
2.0789712e-05
2.0515652e-05
2.0241328e-05
1.9966763e-05
1.969198e-05
1.9416997e-05
1.9141836e-05
1.8866515e-05
1.859105e-05
1.8315459e-05
1.8039755e-05
1.7763954e-05
1.7488069e-05
1.7212112e-05
1.6936094e-05
1.6660026e-05
1.6383919e-05
1.610778e-05
1.583162e-05
1.5555444e-05
1.527926e-05
1.5003076e-05
1.4726895e-05
1.4450725e-05
1.4174569e-05
1.3898432e-05
1.3622318e-05
1.334623e-05
1.3070171e-05
1.2794144e-05
1.2518151e-05
1.2242194e-05
1.1966275e-05
1.1690394e-05
1.1414554e-05
1.1138755e-05
1.0862997e-05
1.0587282e-05
1.0311609e-05
1.0035979e-05
9.7603912e-06
9.4848456e-06
9.2093419e-06
8.9338798e-06
8.6584587e-06
8.3830779e-06
8.1077367e-06
7.8324343e-06
7.5571699e-06
7.2819426e-06
7.0067514e-06
6.7315954e-06
6.4564734e-06
6.1813844e-06
5.9063275e-06
5.6313014e-06
5.356305e-06
5.0813374e-06
4.8063973e-06
4.5314838e-06
4.2565958e-06
3.9817323e-06
3.7068925e-06
3.4320754e-06
3.1572806e-06
2.8825075e-06
2.607756e-06
2.3330263e-06
2.0583194e-06
1.7836367e-06
1.5089803e-06
1.2343546e-06
9.5976886e-07
6.8521476e-07
4.1058137e-07
1.3619799e-07
-3.2608134e-05
-1.0994812e-05
7.5409016e-06
2.1588553e-05
3.250031e-05
4.0712275e-05
4.6701276e-05
5.094421e-05
5.3820976e-05
5.5635121e-05
5.6633937e-05
5.7017699e-05
5.6946915e-05
5.6548777e-05
5.5922805e-05
5.5145792e-05
5.4276096e-05
5.3357366e-05
5.2421703e-05
5.1492198e-05
5.0585e-05
4.971096e-05
4.8876938e-05
4.8086824e-05
4.7342325e-05
4.6643576e-05
4.5989607e-05
4.5378696e-05
4.4808631e-05
4.4276908e-05
4.3780878e-05
4.3317846e-05
4.2885152e-05
4.2480213e-05
4.2100565e-05
4.1743878e-05
4.1407967e-05
4.10908e-05
4.0790494e-05
4.0505314e-05
4.0233663e-05
3.997408e-05
3.9725224e-05
3.9485873e-05
3.9254911e-05
3.9031322e-05
3.881418e-05
3.860264e-05
3.8395935e-05
3.8193368e-05
3.7994302e-05
3.779816e-05
3.7604416e-05
3.7412594e-05
3.7222257e-05
3.7033011e-05
3.6844498e-05
3.6656391e-05
3.6468396e-05
3.6280244e-05
3.6091692e-05
3.5902522e-05
3.5712535e-05
3.5521554e-05
3.5329418e-05
3.5135985e-05
3.4941127e-05
3.4744732e-05
3.4546699e-05
3.4346943e-05
3.4145387e-05
3.3941968e-05
3.373663e-05
3.352933e-05
3.3320031e-05
3.3108705e-05
3.2895332e-05
3.2679898e-05
3.2462398e-05
3.2242832e-05
3.2021203e-05
3.1797523e-05
3.1571809e-05
3.1344078e-05
3.1114357e-05
3.0882672e-05
3.0649056e-05
3.0413542e-05
3.0176168e-05
2.9936975e-05
2.9696003e-05
2.9453297e-05
2.9208902e-05
2.8962866e-05
2.8715237e-05
2.8466064e-05
2.8215398e-05
2.7963288e-05
2.7709786e-05
2.7454942e-05
2.7198809e-05
2.6941436e-05
2.6682876e-05
2.6423177e-05
2.6162391e-05
2.5900565e-05
2.5637748e-05
2.5373989e-05
2.5109333e-05
2.4843826e-05
2.4577513e-05
2.4310437e-05
2.4042639e-05
2.3774162e-05
2.3505045e-05
2.3235326e-05
2.2965043e-05
2.2694231e-05
2.2422924e-05
2.2151157e-05
2.187896e-05
2.1606364e-05
2.1333398e-05
2.106009e-05
2.0786467e-05
2.0512553e-05
2.0238374e-05
1.9963951e-05
1.9689306e-05
1.941446e-05
1.9139432e-05
1.8864241e-05
1.8588902e-05
1.8313433e-05
1.8037848e-05
1.7762162e-05
1.7486388e-05
1.7210538e-05
1.6934623e-05
1.6658655e-05
1.6382642e-05
1.6106595e-05
1.5830522e-05
1.555443e-05
1.5278326e-05
1.5002217e-05
1.472611e-05
1.4450008e-05
1.4173917e-05
1.3897842e-05
1.3621787e-05
1.3345754e-05
1.3069747e-05
1.2793769e-05
1.2517823e-05
1.2241909e-05
1.196603e-05
1.1690188e-05
1.1414383e-05
1.1138617e-05
1.086289e-05
1.0587204e-05
1.0311557e-05
1.0035951e-05
9.7603854e-06
9.4848602e-06
9.2093753e-06
8.9339301e-06
8.6585244e-06
8.3831574e-06
8.1078287e-06
7.8325374e-06
7.5572828e-06
7.2820641e-06
7.0068804e-06
6.7317308e-06
6.4566143e-06
6.18153e-06
5.9064767e-06
5.6314536e-06
5.3564596e-06
5.0814937e-06
4.8065548e-06
4.531642e-06
4.2567543e-06
3.9818908e-06
3.7070506e-06
3.4322331e-06
3.1574375e-06
2.8826635e-06
2.6079109e-06
2.3331796e-06
2.0584702e-06
1.7837835e-06
1.5091204e-06
1.2344833e-06
9.598792e-07
6.8529502e-07
4.1060587e-07
1.3615375e-07
-9.5227532e-05
-3.2056431e-05
3.7110457e-06
2.2408468e-05
3.4613768e-05
4.288725e-05
4.8467767e-05
5.2223405e-05
5.4680079e-05
5.6176253e-05
5.695452e-05
5.7197947e-05
5.7047859e-05
5.6614315e-05
5.5982963e-05
5.5219783e-05
5.4375024e-05
5.3486606e-05
5.2582658e-05
5.1683637e-05
5.0804054e-05
4.9953847e-05
4.9139473e-05
4.8364764e-05
4.7631598e-05
4.6940421e-05
4.6290648e-05
4.5680973e-05
4.5109603e-05
4.4574434e-05
4.4073188e-05
4.3603508e-05
4.316303e-05
4.2749435e-05
4.2360483e-05
4.1994035e-05
4.164807e-05
4.132069e-05
4.1010125e-05
4.071473e-05
4.0432982e-05
4.0163478e-05
3.9904924e-05
3.9656133e-05
3.9416014e-05
3.9183571e-05
3.8957889e-05
3.8738132e-05
3.8523538e-05
3.8313406e-05
3.81071e-05
3.7904038e-05
3.7703688e-05
3.7505565e-05
3.7309226e-05
3.7114268e-05
3.6920323e-05
3.6727054e-05
3.6534158e-05
3.6341357e-05
3.6148398e-05
3.5955052e-05
3.5761112e-05
3.5566392e-05
3.5370722e-05
3.5173951e-05
3.4975943e-05
3.4776577e-05
3.4575745e-05
3.4373354e-05
3.416932e-05
3.3963573e-05
3.375605e-05
3.3546702e-05
3.3335485e-05
3.3122365e-05
3.2907317e-05
3.2690321e-05
3.2471366e-05
3.2250446e-05
3.2027562e-05
3.1802719e-05
3.1575929e-05
3.1347207e-05
3.1116572e-05
3.0884049e-05
3.0649666e-05
3.0413452e-05
3.0175441e-05
2.993567e-05
2.9694177e-05
2.9451003e-05
2.9206191e-05
2.8959784e-05
2.8711828e-05
2.8462369e-05
2.8211455e-05
2.7959133e-05
2.7705453e-05
2.7450462e-05
2.7194211e-05
2.6936747e-05
2.6678119e-05
2.6418376e-05
2.6157566e-05
2.5895736e-05
2.5632932e-05
2.5369201e-05
2.5104588e-05
2.4839137e-05
2.4572891e-05
2.4305893e-05
2.4038182e-05
2.37698e-05
2.3500784e-05
2.3231173e-05
2.2961002e-05
2.2690307e-05
2.2419121e-05
2.2147476e-05
2.1875404e-05
2.1602934e-05
2.1330096e-05
2.1056916e-05
2.078342e-05
2.0509633e-05
2.0235579e-05
1.9961281e-05
1.9686759e-05
1.9412034e-05
1.9137125e-05
1.8862049e-05
1.8586824e-05
1.8311466e-05
1.8035989e-05
1.7760408e-05
1.7484735e-05
1.7208984e-05
1.6933165e-05
1.6657288e-05
1.6381365e-05
1.6105403e-05
1.5829412e-05
1.5553399e-05
1.527737e-05
1.5001334e-05
1.4725295e-05
1.4449259e-05
1.4173232e-05
1.3897216e-05
1.3621217e-05
1.3345238e-05
1.3069283e-05
1.2793353e-05
1.2517451e-05
1.224158e-05
1.1965742e-05
1.1689937e-05
1.1414168e-05
1.1138435e-05
1.086274e-05
1.0587082e-05
1.0311462e-05
1.0035881e-05
9.7603382e-06
9.4848343e-06
9.2093689e-06
8.9339416e-06
8.6585522e-06
8.3832002e-06
8.1078849e-06
7.8326058e-06
7.5573621e-06
7.2821532e-06
7.0069781e-06
6.7318361e-06
6.4567262e-06
6.1816476e-06
5.9065993e-06
5.6315803e-06
5.3565897e-06
5.0816265e-06
4.8066897e-06
4.5317786e-06
4.256892e-06
3.9820292e-06
3.7071894e-06
3.4323718e-06
3.1575759e-06
2.882801e-06
2.6080468e-06
2.3333132e-06
2.0586001e-06
1.7839078e-06
1.5092361e-06
1.234586e-06
9.5996274e-07
6.8535049e-07
4.1061521e-07
1.3611334e-07
-0.00017127354
-4.0782059e-05
9.9339396e-06
2.9426607e-05
4.0252989e-05
4.697062e-05
5.1269999e-05
5.407612e-05
5.5860556e-05
5.689528e-05
5.7366472e-05
5.741387e-05
5.7146688e-05
5.6651368e-05
5.5996094e-05
5.5233886e-05
5.4405631e-05
5.3542568e-05
5.2668102e-05
5.1799442e-05
5.094895e-05
5.0125229e-05
4.9333981e-05
4.8578699e-05
4.7861209e-05
4.718209e-05
4.6541009e-05
4.5936976e-05
4.5368546e-05
4.4833968e-05
4.4331304e-05
4.3858518e-05
4.3413537e-05
4.2994305e-05
4.2598814e-05
4.2225129e-05
4.1871404e-05
4.1535891e-05
4.1216946e-05
4.0913031e-05
4.0622714e-05
4.0344661e-05
4.0077642e-05
3.9820514e-05
3.9572229e-05
3.9331816e-05
3.9098386e-05
3.8871119e-05
3.8649263e-05
3.8432129e-05
3.8219083e-05
3.8009544e-05
3.7802981e-05
3.7598907e-05
3.7396874e-05
3.7196476e-05
3.6997337e-05
3.6799117e-05
3.6601503e-05
3.6404211e-05
3.6206982e-05
3.6009578e-05
3.5811786e-05
3.5613411e-05
3.5414276e-05
3.5214223e-05
3.5013108e-05
3.4810804e-05
3.4607197e-05
3.4402185e-05
3.4195679e-05
3.3987602e-05
3.3777886e-05
3.3566475e-05
3.3353319e-05
3.3138381e-05
3.2921627e-05
3.2703034e-05
3.2482587e-05
3.2260273e-05
3.2036089e-05
3.1810036e-05
3.1582121e-05
3.1352355e-05
3.1120755e-05
3.0887339e-05
3.0652133e-05
3.0415162e-05
3.0176457e-05
2.9936051e-05
2.9693979e-05
2.9450279e-05
2.920499e-05
2.8958154e-05
2.8709813e-05
2.8460011e-05
2.8208792e-05
2.7956203e-05
2.7702289e-05
2.7447097e-05
2.7190674e-05
2.6933066e-05
2.667432e-05
2.6414483e-05
2.6153601e-05
2.5891719e-05
2.5628882e-05
2.5365136e-05
2.5100523e-05
2.4835086e-05
2.4568867e-05
2.4301907e-05
2.4034246e-05
2.3765923e-05
2.3496975e-05
2.3227439e-05
2.2957349e-05
2.2686741e-05
2.2415646e-05
2.2144098e-05
2.1872125e-05
2.1599757e-05
2.1327023e-05
2.1053948e-05
2.0780559e-05
2.050688e-05
2.0232934e-05
1.9958743e-05
1.9684327e-05
1.9409708e-05
1.9134903e-05
1.8859931e-05
1.8584808e-05
1.8309549e-05
1.803417e-05
1.7758684e-05
1.7483104e-05
1.7207443e-05
1.6931712e-05
1.6655921e-05
1.638008e-05
1.6104199e-05
1.5828284e-05
1.5552345e-05
1.5276389e-05
1.5000421e-05
1.4724448e-05
1.4448475e-05
1.4172508e-05
1.389655e-05
1.3620606e-05
1.334468e-05
1.3068774e-05
1.2792891e-05
1.2517035e-05
1.2241206e-05
1.1965408e-05
1.1689641e-05
1.1413907e-05
1.1138208e-05
1.0862544e-05
1.0586915e-05
1.0311323e-05
1.0035767e-05
9.7602487e-06
9.4847669e-06
9.209322e-06
8.9339136e-06
8.6585416e-06
8.3832056e-06
8.1079049e-06
7.8326391e-06
7.5574076e-06
7.2822096e-06
7.0070443e-06
6.7319111e-06
6.4568091e-06
6.1817373e-06
5.906695e-06
5.6316813e-06
5.3566952e-06
5.0817358e-06
4.8068022e-06
4.5318936e-06
4.2570091e-06
3.9821478e-06
3.707309e-06
3.4324919e-06
3.1576958e-06
2.8829201e-06
2.6081643e-06
2.333428e-06
2.0587107e-06
1.784012e-06
1.5093312e-06
1.234668e-06
9.6002671e-07
6.8538933e-07
4.1061602e-07
1.3608264e-07
0.0001544697
8.1264842e-05
5.6136066e-05
5.1809654e-05
5.1999778e-05
5.3364618e-05
5.49333e-05
5.6231311e-05
5.7114813e-05
5.758965e-05
5.7709269e-05
5.7539489e-05
5.7145311e-05
5.6584258e-05
5.5904232e-05
5.5144186e-05
5.4335246e-05
5.3501553e-05
5.266146e-05
5.1828668e-05
5.1013171e-05
5.0222046e-05
4.9460088e-05
4.8730325e-05
4.8034429e-05
4.737304e-05
4.6746023e-05
4.6152672e-05
4.5591867e-05
4.5062204e-05
4.4562087e-05
4.4089808e-05
4.3643603e-05
4.3221694e-05
4.2822326e-05
4.2443788e-05
4.2084431e-05
4.1742678e-05
4.1417034e-05
4.1106086e-05
4.0808509e-05
4.0523062e-05
4.0248588e-05
3.9984009e-05
3.9728326e-05
3.9480613e-05
3.9240013e-05
3.9005733e-05
3.8777044e-05
3.855327e-05
3.833379e-05
3.8118033e-05
3.7905471e-05
3.769562e-05
3.7488035e-05
3.7282306e-05
3.7078058e-05
3.6874946e-05
3.6672655e-05
3.6470894e-05
3.62694e-05
3.606793e-05
3.5866265e-05
3.5664203e-05
3.5461562e-05
3.5258178e-05
3.5053901e-05
3.4848598e-05
3.4642147e-05
3.4434443e-05
3.4225389e-05
3.4014904e-05
3.3802913e-05
3.3589354e-05
3.3374175e-05
3.315733e-05
3.2938783e-05
3.2718505e-05
3.2496475e-05
3.2272677e-05
3.2047104e-05
3.1819752e-05
3.1590624e-05
3.1359727e-05
3.1127073e-05
3.0892679e-05
3.0656565e-05
3.0418753e-05
3.0179271e-05
2.9938149e-05
2.9695419e-05
2.9451115e-05
2.9205274e-05
2.8957935e-05
2.8709136e-05
2.845892e-05
2.8207329e-05
2.7954406e-05
2.7700194e-05
2.7444739e-05
2.7188083e-05
2.6930274e-05
2.6671354e-05
2.6411369e-05
2.6150362e-05
2.5888379e-05
2.5625462e-05
2.5361654e-05
2.5096997e-05
2.4831533e-05
2.4565302e-05
2.4298343e-05
2.4030696e-05
2.3762398e-05
2.3493485e-05
2.3223993e-05
2.2953956e-05
2.2683408e-05
2.241238e-05
2.2140903e-05
2.1869007e-05
2.1596721e-05
2.1324071e-05
2.1051084e-05
2.0777784e-05
2.0504197e-05
2.0230343e-05
1.9956246e-05
1.9681925e-05
1.9407401e-05
1.913269e-05
1.8857811e-05
1.8582781e-05
1.8307614e-05
1.8032325e-05
1.7756929e-05
1.7481437e-05
1.7205861e-05
1.6930214e-05
1.6654504e-05
1.6378743e-05
1.6102938e-05
1.5827098e-05
1.5551232e-05
1.5275345e-05
1.4999445e-05
1.4723537e-05
1.4447627e-05
1.417172e-05
1.389582e-05
1.3619931e-05
1.3344058e-05
1.3068202e-05
1.2792368e-05
1.2516557e-05
1.2240772e-05
1.1965015e-05
1.1689287e-05
1.141359e-05
1.1137926e-05
1.0862295e-05
1.0586697e-05
1.0311134e-05
1.0035606e-05
9.7601124e-06
9.4846545e-06
9.2092317e-06
8.9338441e-06
8.6584912e-06
8.3831728e-06
8.1078885e-06
7.8326377e-06
7.5574198e-06
7.2822344e-06
7.0070805e-06
6.7319576e-06
6.4568649e-06
6.1818015e-06
5.9067666e-06
5.6317594e-06
5.3567791e-06
5.0818248e-06
4.8068955e-06
4.5319906e-06
4.2571091e-06
3.9822501e-06
3.707413e-06
3.432597e-06
3.1578012e-06
2.883025e-06
2.6082677e-06
2.3335286e-06
2.0588069e-06
1.7841018e-06
1.5094117e-06
1.234736e-06
9.6007844e-07
6.8541779e-07
4.106118e-07
1.3607035e-07
0.00012101739
8.0018068e-05
6.308199e-05
5.892428e-05
5.7393522e-05
5.7035326e-05
5.7301058e-05
5.7669312e-05
5.7906036e-05
5.7943988e-05
5.7778865e-05
5.7433599e-05
5.6941154e-05
5.6335265e-05
5.5646997e-05
5.4903235e-05
5.4126022e-05
5.3332878e-05
5.2537436e-05
5.1750093e-05
5.0978599e-05
5.0228577e-05
4.9503951e-05
4.8807303e-05
4.8140157e-05
4.7503213e-05
4.6896536e-05
4.6319704e-05
4.5771931e-05
4.5252168e-05
4.4759175e-05
4.4291589e-05
4.384797e-05
4.3426844e-05
4.3026728e-05
4.2646158e-05
4.2283704e-05
4.1937984e-05
4.160767e-05
4.12915e-05
4.0988272e-05
4.0696857e-05
4.0416188e-05
4.0145269e-05
3.9883167e-05
3.9629009e-05
3.9381987e-05
3.9141346e-05
3.8906387e-05
3.867646e-05
3.8450964e-05
3.8229343e-05
3.8011082e-05
3.7795706e-05
3.7582775e-05
3.7371886e-05
3.7162663e-05
3.6954764e-05
3.6747873e-05
3.6541697e-05
3.6335971e-05
3.613045e-05
3.5924909e-05
3.5719144e-05
3.5512969e-05
3.5306214e-05
3.5098725e-05
3.4890363e-05
3.4681003e-05
3.4470534e-05
3.4258855e-05
3.4045879e-05
3.3831527e-05
3.3615732e-05
3.3398436e-05
3.317959e-05
3.2959152e-05
3.2737091e-05
3.251338e-05
3.2288e-05
3.2060938e-05
3.1832187e-05
3.1601746e-05
3.1369619e-05
3.1135814e-05
3.0900344e-05
3.0663226e-05
3.0424479e-05
3.0184127e-05
2.9942198e-05
2.9698719e-05
2.9453724e-05
2.9207245e-05
2.8959318e-05
2.870998e-05
2.8459271e-05
2.820723e-05
2.7953897e-05
2.7699315e-05
2.7443525e-05
2.718657e-05
2.6928492e-05
2.6669335e-05
2.640914e-05
2.6147951e-05
2.588581e-05
2.5622758e-05
2.5358837e-05
2.5094087e-05
2.4828549e-05
2.456226e-05
2.4295261e-05
2.4027586e-05
2.3759275e-05
2.3490361e-05
2.3220879e-05
2.2950862e-05
2.2680342e-05
2.2409352e-05
2.213792e-05
2.1866075e-05
2.1593846e-05
2.1321258e-05
2.1048338e-05
2.0775109e-05
2.0501595e-05
2.0227818e-05
1.99538e-05
1.9679559e-05
1.9405116e-05
1.9130488e-05
1.8855692e-05
1.8580744e-05
1.830566e-05
1.8030454e-05
1.7755139e-05
1.7479728e-05
1.7204233e-05
1.6928664e-05
1.6653031e-05
1.6377345e-05
1.6101615e-05
1.5825847e-05
1.5550051e-05
1.5274233e-05
1.4998399e-05
1.4722555e-05
1.4446707e-05
1.4170859e-05
1.3895017e-05
1.3619184e-05
1.3343363e-05
1.3067559e-05
1.2791773e-05
1.2516009e-05
1.2240269e-05
1.1964555e-05
1.1688868e-05
1.141321e-05
1.1137582e-05
1.0861985e-05
1.058642e-05
1.0310888e-05
1.0035389e-05
9.7599231e-06
9.4844909e-06
9.2090923e-06
8.9337271e-06
8.6583953e-06
8.3830965e-06
8.1078304e-06
7.8325964e-06
7.5573942e-06
7.282223e-06
7.0070823e-06
6.7319715e-06
6.4568897e-06
6.1818363e-06
5.9068104e-06
5.6318114e-06
5.3568383e-06
5.0818904e-06
4.8069667e-06
4.5320667e-06
4.2571892e-06
3.9823337e-06
3.7074992e-06
3.432685e-06
3.1578902e-06
2.8831141e-06
2.6083557e-06
2.3336142e-06
2.0588885e-06
1.7841773e-06
1.509479e-06
1.2347923e-06
9.6012079e-07
6.8544226e-07
4.1061241e-07
1.3605423e-07
8.5478139e-05
7.2675035e-05
6.4835691e-05
6.1474235e-05
5.9618156e-05
5.8686076e-05
5.8326715e-05
5.8167702e-05
5.801075e-05
5.7776561e-05
5.7437973e-05
5.699442e-05
5.6458613e-05
5.5848989e-05
5.5184496e-05
5.448238e-05
5.375742e-05
5.3021821e-05
5.2285409e-05
5.1555921e-05
5.0839328e-05
5.014013e-05
4.9461614e-05
4.8806078e-05
4.8175015e-05
4.7569268e-05
4.6989161e-05
4.64346e-05
4.5905168e-05
4.5400197e-05
4.4918829e-05
4.4460068e-05
4.4022822e-05
4.3605938e-05
4.3208228e-05
4.2828495e-05
4.2465549e-05
4.2118219e-05
4.1785368e-05
4.1465895e-05
4.1158746e-05
4.0862915e-05
4.0577444e-05
4.030143e-05
4.0034019e-05
3.9774408e-05
3.9521845e-05
3.9275623e-05
3.9035084e-05
3.8799613e-05
3.8568637e-05
3.8341622e-05
3.8118073e-05
3.7897529e-05
3.7679562e-05
3.7463777e-05
3.7249807e-05
3.7037313e-05
3.6825981e-05
3.6615523e-05
3.6405671e-05
3.6196182e-05
3.598683e-05
3.5777408e-05
3.5567727e-05
3.5357615e-05
3.5146916e-05
3.4935486e-05
3.4723197e-05
3.4509934e-05
3.4295592e-05
3.4080079e-05
3.3863315e-05
3.3645227e-05
3.3425753e-05
3.320484e-05
3.2982443e-05
3.2758526e-05
3.2533059e-05
3.2306018e-05
3.2077388e-05
3.1847159e-05
3.1615324e-05
3.1381885e-05
3.1146846e-05
3.0910218e-05
3.0672013e-05
3.0432249e-05
3.0190946e-05
2.9948128e-05
2.9703821e-05
2.9458055e-05
2.921086e-05
2.896227e-05
2.8712319e-05
2.8461043e-05
2.820848e-05
2.7954668e-05
2.7699647e-05
2.7443457e-05
2.7186138e-05
2.692773e-05
2.6668275e-05
2.6407813e-05
2.6146386e-05
2.5884033e-05
2.5620794e-05
2.535671e-05
2.509182e-05
2.4826161e-05
2.4559771e-05
2.4292688e-05
2.4024947e-05
2.3756584e-05
2.3487632e-05
2.3218126e-05
2.2948096e-05
2.2677576e-05
2.2406593e-05
2.2135179e-05
2.186336e-05
2.1591163e-05
2.1318615e-05
2.104574e-05
2.0772562e-05
2.0499103e-05
2.0225385e-05
1.9951429e-05
1.9677254e-05
1.9402879e-05
1.912832e-05
1.8853596e-05
1.8578721e-05
1.830371e-05
1.8028577e-05
1.7753336e-05
1.7477999e-05
1.7202577e-05
1.692708e-05
1.665152e-05
1.6375905e-05
1.6100244e-05
1.5824545e-05
1.5548816e-05
1.5273064e-05
1.4997294e-05
1.4721512e-05
1.4445725e-05
1.4169936e-05
1.3894151e-05
1.3618373e-05
1.3342606e-05
1.3066852e-05
1.2791116e-05
1.25154e-05
1.2239705e-05
1.1964034e-05
1.1688388e-05
1.141277e-05
1.113718e-05
1.0861619e-05
1.0586088e-05
1.0310588e-05
1.003512e-05
9.7596833e-06
9.4842784e-06
9.2089055e-06
8.9335646e-06
8.6582555e-06
8.382978e-06
8.1077317e-06
7.8325163e-06
7.5573312e-06
7.282176e-06
7.0070501e-06
6.7319529e-06
6.4568837e-06
6.1818417e-06
5.9068264e-06
5.6318368e-06
5.3568723e-06
5.0819321e-06
4.8070153e-06
4.5321213e-06
4.2572491e-06
3.9823979e-06
3.707567e-06
3.4327555e-06
3.1579625e-06
2.8831871e-06
2.6084283e-06
2.3336851e-06
2.0589562e-06
1.7842402e-06
1.5095351e-06
1.2348396e-06
9.6015694e-07
6.8546523e-07
4.1061916e-07
1.3604339e-07
7.5279061e-05
6.9721155e-05
6.4763921e-05
6.1712575e-05
5.9837134e-05
5.8728869e-05
5.8103462e-05
5.7702218e-05
5.7367129e-05
5.7020054e-05
5.6625004e-05
5.6170388e-05
5.5658206e-05
5.5096729e-05
5.4496359e-05
5.3867628e-05
5.3220251e-05
5.2562732e-05
5.1902275e-05
5.1244842e-05
5.0595275e-05
4.9957424e-05
4.9334289e-05
4.8728137e-05
4.8140614e-05
4.7572837e-05
4.7025485e-05
4.6498863e-05
4.5992977e-05
4.550758e-05
4.504223e-05
4.4596325e-05
4.4169146e-05
4.3759883e-05
4.3367665e-05
4.2991581e-05
4.2630699e-05
4.2284079e-05
4.1950788e-05
4.162991e-05
4.1320548e-05
4.1021837e-05
4.0732944e-05
4.0453068e-05
4.018145e-05
3.9917367e-05
3.9660133e-05
3.9409103e-05
3.9163667e-05
3.8923252e-05
3.8687322e-05
3.8455374e-05
3.8226935e-05
3.8001567e-05
3.777886e-05
3.7558432e-05
3.7339926e-05
3.7123013e-05
3.6907386e-05
3.6692762e-05
3.6478876e-05
3.6265487e-05
3.6052371e-05
3.583932e-05
3.5626147e-05
3.5412677e-05
3.5198752e-05
3.4984228e-05
3.4768974e-05
3.4552871e-05
3.4335814e-05
3.4117706e-05
3.3898463e-05
3.3678011e-05
3.3456284e-05
3.3233225e-05
3.3008787e-05
3.2782929e-05
3.2555619e-05
3.232683e-05
3.2096542e-05
3.1864742e-05
3.1631423e-05
3.1396581e-05
3.1160217e-05
3.092234e-05
3.0682958e-05
3.0442088e-05
3.0199745e-05
2.9955952e-05
2.9710732e-05
2.9464111e-05
2.9216118e-05
2.8966783e-05
2.871614e-05