/*--------------------------------*- C++ -*----------------------------------*\
| =========                 |                                                 |
| \\      /  F ield         | OpenFOAM: The Open Source CFD Toolbox           |
|  \\    /   O peration     | Version:  2406                                  |
|   \\  /    A nd           | Website:  www.openfoam.com                      |
|    \\/     M anipulation  |                                                 |
\*---------------------------------------------------------------------------*/
FoamFile
{
    version     2.0;
    format      ascii;
    arch        "LSB;label=32;scalar=64";
    class       volScalarField;
    location    "1057";
    object      T;
}
// * * * * * * * * * * * * * * * * * * * * * * * * * * * * * * * * * * * * * //

dimensions      [0 0 0 0 0 0 0];

internalField   nonuniform List<scalar> 
7000
(
1
1
1
1
1
1
1
1
1
1
1
1
1
1
1
1
1
1
1
1
1
1
1
1
1
1
1
1
1
1
1
1
1
1
1
1
1
1
1
1
1
1
1
1
1
1
1
1
1
1
1
1
1
1
1
1
1
1
1
1
1
1
1
1
1
1
1
1
1
1
1
1
1
1
1
1
1
1
1
1
1
1
1
1
1
1
1
1
1
1
1
1
1
1
1
1
1
1
1
1
1
1
1
1
1
1
1
1
1
1
1
1
1
1
1
1
1
1
1
1
1
1
1
1
1
1
1
1
1
1
1
1
1
1
1
1
1
1
1
1
1
1
1
1
1
1
1
1
1
1
1
1
1
1
1
1
1
1
1
1
1
1
1
1
1
1
1
1
1
1
1
1
1
1
1
1
1
1
1
1
1
1
1
1
1
1
1
1
1
1
1
1
1
1
1
1
1
1
1
1
1
1
1
1
1
1
1
1
1
1
1
1
1
1
1
1
1
1
1
1
1
1
1
1
1
1
1
1
1
1
1
1
1
1
1
1
1
1
1
1
1
1
1
1
1
1
1
1
1
1
1
1
1
1
1
1
1
1
1
1
1
1
1
1
1
1
1
1
1
1
1
1
1
1
1
1
1
1
1
1
1
1
1
1
1
1
1
1
1
1
1
1
1
1
1
1
1
1
1
1
1
1
1
1
1
1
1
1
1
1
1
1
1
1
1
1
1
1
1
1
1
1
1
1
1
1
1
1
1
1
1
1
1
1
1
1
1
1
1
1
1
1
1
1
1
1
1
1
1
1
1
1
1
1
1
1
1
1
1
1
1
1
1
1
1
1
1
1
1
1
1
1
1
1
1
1
1
1
1
1
1
1
1
1
1
1
1
1
1
1
1
1
1
1
1
1
1
1
1
1
1
1
1
1
1
1
1
1
1
1
1
1
1
1
1
1
1
1
1
1
1
1
1
1
1
1
1
1
1
1
1
1
1
1
1
1
1
1
1
1
1
1
1
1
1
1
1
1
1
1
1
1
1
1
1
1
1
1
1
1
1
1
1
1
1
1
1
1
1
1
1
1
1
1
1
1
1
1
1
1
1
1
1
1
1
1
1
1
1
1
1
1
1
1
1
1
1
1
1
1
1
1
1
1
1
1
1
1
1
1
1
1
1
1
1
1
1
1
1
1
1
1
1
1
1
1
1
1
1
1
1
1
1
1
1
1
1
1
1
1
1
1
1
1
1
1
1
1
1
1
1
1
1
1
1
1
1
1
1
1
1
1
1
1
1
1
1
1
1
1
1
1
1
1
1
1
1
1
1
1
1
1
1
1
1
1
1
1
1
1
1
1
1
1
1
1
1
1
1
1
1
1
1
1
1
1
1
1
1
1
1
1
1
1
1
1
1
1
1
1
1
1
1
1
1
1
1
1
1
1
1
1
1
1
1
1
1
1
1
1
1
1
1
1
1
1
1
1
1
1
1
1
1
1
1
1
1
1
1
1
1
1
1
1
1
1
1
1
1
1
1
1
1
1
1
1
1
1
1
1
1
1
1
1
1
1
1
1
1
1
1
1
1
1
1
1
1
1
1
1
1
1
1
1
1
1
1
1
1
1
1
1
1
1
1
1
1
1
1
1
1
1
1
1
1
1
1
1
1
1
1
1
1
1
1
1
1
1
1
1
1
1
1
1
1
1
1
1
1
1
1
1
1
1
1
1
1
1
1
1
1
1
1
1
1
1
1
1
1
1
1
1
1
1
1
1
1
1
1
1
1
1
1
1
1
1
1
1
1
1
1
1
1
1
1
1
1
1
1
1
1
1
1
1
1
1
1
1
1
1
1
1
1
1
1
1
1
1
1
1
1
1
1
1
1
1
1
1
1
1
1
1
1
1
1
1
1
1
1
1
1
1
1
1
1
1
1
1
1
1
1
1
1
1
1
1
1
1
1
1
1
1
1
1
1
1
1
1
1
1
1
1
1
1
1
1
1
1
1
1
1
1
1
1
1
1
1
1
1
1
1
1
1
1
1
1
1
1
1
1
1
1
1
1
1
1
1
1
1
1
1
1
1
1
1
1
1
1
1
1
1
1
1
1
1
1
1
1
1
1
1
1
1
1
1
1
1
1
1
1
1
1
1
1
1
1
1
1
1
1
1
1
1
1
1
1
1
1
1
1
1
1
1
1
1
1
1
1
1
1
1
1
1
1
1
1
1
1
1
1
1
1
1
1
1
1
1
1
1
1
1
1
1
1
1
1
1
1
1
1
1
1
1
1
1
1
1
1
1
1
1
1
1
1
1
1
1
1
1
1
1
1
1
1
1
1
1
1
1
1
1
1
1
1
1
1
1
1
1
1
1
1
1
1
1
1
1
1
1
1
1
1
1
1
1
1
1
1
1
1
1
1
1
1
1
1
1
1
1
1
1
1
1
1
1
1
1
1
1
1
1
1
1
1
1
1
1
1
1
1
1
1
1
1
1
1
1
1
1
1
1
1
1
1
1
1
1
1
1
1
1
1
1
1
1
1
1
1
1
1
1
1
1
1
1
1
1
1
1
1
1
1
1
1
1
1
1
1
1
1
1
1
1
1
1
1
1
1
1
1
1
1
1
1
1
1
1
1
1
1
1
1
1
1
1
1
1
1
1
1
1
1
1
1
1
1
1
1
1
1
1
1
1
1
1
1
1
1
1
1
1
1
1
1
1
1
1
1
1
1
1
1
1
1
1
1
1
1
1
1
1
1
1
1
1
1
1
1
1
1
1
1
1
1
1
1
1
1
1
1
1
1
1
1
1
1
1
1
1
1
1
1
1
1
1
1
1
1
1
1
1
1
1
1
1
1
1
1
1
1
1
1
1
1
1
1
1
1
1
1
1
1
1
1
1
1
1
1
1
1
1
1
1
1
1
1
1
1
1
1
1
1
1
1
1
1
1
1
1
1
1
1
1
1
1
1
1
1
1
1
1
1
1
1
1
1
1
1
1
1
1
1
1
1
1
1
1
1
1
1
1
1
1
1
1
1
1
1
1
1
1
1
1
1
1
1
1
1
1
1
1
1
1
1
1
1
1
1
1
1
1
1
1
1
1
1
1
1
1
1
1
1
1
1
1
1
1
1
1
1
1
1
1
1
1
1
1
1
1
1
1
1
1
1
1
1
1
1
1
1
1
1
1
1
1
1
1
1
1
1
1
1
1
1
1
1
1
1
1
1
1
1
1
1
1
1
1
1
1
1
1
1
1
1
1
1
1
1
1
1
1
1
1
1
1
1
1
1
1
1
1
1
1
1
1
1
1
1
1
1
1
1
1
1
1
1
1
1
1
1
1
1
1
1
1
1
1
1
1
1
1
1
1
1
1
1
1
1
1
1
1
1
1
1
1
1
1
1
1
1
1
1
1
1
1
1
1
1
1
1
1
1
1
1
1
1
1
1
1
1
1
1
1
1
1
1
1
1
1
1
1
1
1
1
1
1
1
1
1
1
1
1
1
1
1
1
1
1
1
1
1
1
1
1
1
1
1
1
1
1
1
1
1
1
1
1
1
1
1
1
1
1
1
1
1
1
1
1
1
1
1
1
1
1
1
1
1
1
1
1
1
1
1
1
1
1
1
1
1
1
1
1
1
1
1
1
1
1
1
1
1
1
1
1
1
1
1
1
1
1
1
1
1
1
1
1
1
1
1
1
1
1
1
1
1
1
1
1
1
1
1
1
1
1
1
1
1
1
1
1
1
1
1
1
1
1
1
1
1
1
1
1
1
1
1
1
1
1
1
1
1
1
1
1
1
1
1
1
1
1
1
1
1
1
1
1
1
1
1
1
1
1
1
1
1
1
1
1
1
1
1
1
1
1
1
1
1
1
1
1
1
1
1
1
1
1
1
1
1
1
1
1
1
1
1
1
1
1
1
1
1
1
1
1
1
1
1
1
1
1
1
1
1
1
1
1
1
1
1
1
1
1
1
1
1
1
1
1
1
1
1
1
1
1
1
1
1
1
1
1
1
1
1
1
1
1
1
1
1
1
1
1
1
1
1
1
1
1
1
1
1
1
1
1
1
1
1
1
1
1
1
1
1
1
1
1
1
1
1
1
1
1
1
1
1
1
1
1
1
1
1
1
1
1
1
1
1
1
1
1
1
1
1
1
1
1
1
1
1
1
1
1
1
1
1
1
1
1
1
1
1
1
1
1
1
1
1
1
1
1
1
1
1
1
1
1
1
1
1
1
1
1
1
1
1
1
1
1
1
1
1
1
1
1
1
1
1
1
1
1
1
1
1
1
1
1
1
1
1
1
1
1
1
1
1
1
1
1
1
1
1
1
1
1
1
1
1
1
1
1
1
1
1
1
1
1
1
1
1
1
1
1
1
1
1
1
1
1
1
1
1
1
1
1
1
1
1
1
1
1
1
1
1
1
1
1
1
1
1
1
1
1
1
1
1
1
1
1
1
1
1
1
1
1
1
1
1
1
1
1
1
1
1
1
1
1
1
1
1
1
1
1
1
1
1
1
1
1
1
1
1
1
1
1
1
1
1
1
1
1
1
1
1
1
1
1
1
1
1
1
1
1
1
1
1
1
1
1
1
1
1
1
1
1
1
1
1
1
1
1
1
1
1
1
1
1
1
1
1
1
1
1
1
1
1
1
1
1
1
1
1
1
1
1
1
1
1
1
1
1
1
1
1
1
1
1
1
1
1
1
1
1
1
1
1
1
1
1
1
1
1
1
1
1
1
1
1
1
1
1
1
1
1
1
1
1
1
1
1
1
1
1
1
1
1
1
1
1
1
1
1
1
1
1
1
1
1
1
1
1
1
1
1
1
1
1
1
1
1
1
1
1
1
1
1
1
1
1
1
1
1
1
1
1
1
1
1
1
1
1
1
1
1
1
1
1
1
1
1
1
1
1
1
1
1
1
1
1
1
1
1
1
1
1
1
1
1
1
1
1
1
1
1
1
1
1
1
1
1
1
1
1
1
1
1
1
1
1
1
1
1
1
1
1
1
1
1
1
1
1
1
1
1
1
1
1
1
1
1
1
1
1
1
1
1
1
1
1
1
1
1
1
1
1
1
1
1
1
1
1
1
1
1
1
1
1
1
1
1
1
1
1
1
1
1
1
1
1
1
1
1
1
1
1
1
1
1
1
1
1
1
1
1
1
1
1
1
1
1
1
1
1
1
1
1
1
1
1
1
1
1
1
1
1
1
1
1
1
1
1
1
1
1
1
1
1
1
1
1
1
1
1
1
1
1
1
1
1
1
1
1
1
1
1
1
1
1
1
1
1
1
1
1
1
1
1
1
1
1
1
1
1
1
1
1
1
1
1
1
1
1
1
1
1
1
1
1
1
1
1
1
1
1
1
1
1
1
1
1
1
1
1
1
1
1
1
1
1
1
1
1
1
1
1
1
1
1
1
1
1
1
1
1
1
1
1
1
1
1
1
1
1
1
1
1
1
1
1
1
1
1
1
1
1
1
1
1
1
1
1
1
1
1
1
1
1
1
1
1
1
1
1
1
1
1
1
1
1
1
1
1
1
1
1
1
1
1
1
1
1
1
1
1
1
1
1
1
1
1
1
1
1
1
1
1
1
1
1
1
1
1
1
1
1
1
1
1
1
1
1
1
1
1
1
1
1
1
1
1
1
1
1
1
1
1
1
1
1
1
1
1
1
1
1
1
1
1
1
1
1
1
1
1
1
1
1
1
1
0.99999999
0.99999999
0.99999999
0.99999999
0.99999999
0.99999999
0.99999999
0.99999999
0.99999999
0.99999999
0.99999999
0.99999999
0.99999999
0.99999999
0.99999999
0.99999999
0.99999999
0.99999999
0.99999999
0.99999999
0.99999999
0.99999999
0.99999999
0.99999999
0.99999999
0.99999999
0.99999999
0.99999999
0.99999999
0.99999999
0.99999999
0.99999999
0.99999999
0.99999999
0.99999999
0.99999999
0.99999999
0.99999999
0.99999999
0.99999999
0.99999999
0.99999999
0.99999999
0.99999999
0.99999999
0.99999999
0.99999999
0.99999999
0.99999999
0.99999999
0.99999999
0.99999999
0.99999999
0.99999999
0.99999999
0.99999999
0.99999999
0.99999999
0.99999999
0.99999999
0.99999999
0.99999999
0.99999999
0.99999999
0.99999999
0.99999999
0.99999999
0.99999999
0.99999999
0.99999999
0.99999999
0.99999999
1
1
1
1
1
1
1
1
0.99999999
0.99999999
0.99999999
0.99999999
0.99999999
0.99999999
0.99999999
0.99999999
0.99999999
0.99999999
0.99999999
0.99999999
0.99999999
0.99999999
1
1
1
1
1
1
1
1
1
1
1
1
1
1
1
1
1
1
1
1
1
1
1
1
1
1
1
1
1
1
1
1
1
1
1
1
1
1
1
1
1
1
1
1
1
1
1
1
1
1
1
1
1
1
1
1
1
1
1
1
1
1
1
1
1
1
1
1
1
1
1
1
1
1
1
0.99999999
0.99999999
0.99999999
0.99999999
0.99999999
0.99999999
0.99999998
0.99999998
0.99999998
0.99999997
0.99999997
0.99999996
0.99999996
0.99999996
0.99999995
0.99999995
0.99999994
0.99999994
0.99999993
0.99999993
0.99999992
0.99999991
0.99999991
0.9999999
0.9999999
0.99999989
0.99999989
0.99999988
0.99999988
0.99999987
0.99999987
0.99999986
0.99999986
0.99999985
0.99999985
0.99999984
0.99999984
0.99999984
0.99999983
0.99999983
0.99999983
0.99999982
0.99999982
0.99999982
0.99999981
0.99999981
0.99999981
0.9999998
0.9999998
0.9999998
0.9999998
0.9999998
0.99999979
0.99999979
0.99999979
0.99999979
0.99999979
0.99999979
0.99999979
0.99999978
0.99999978
0.99999978
0.99999978
0.99999978
0.99999978
0.99999978
0.99999978
0.99999978
0.99999978
0.99999978
0.99999978
0.99999978
0.99999977
0.99999977
0.99999977
0.99999977
0.99999977
0.99999977
0.99999977
0.99999977
0.99999977
0.99999977
0.99999977
0.99999977
0.99999977
0.99999977
0.99999977
0.99999977
0.99999977
0.99999977
0.99999977
0.99999977
0.99999977
0.99999977
0.99999977
0.99999977
0.99999977
0.99999977
0.99999977
0.99999977
0.99999977
0.99999977
0.99999977
0.99999162
0.99998703
0.99998424
0.99998259
0.99998164
0.99998114
0.99998097
0.99998105
0.99998134
0.99998181
0.99998243
0.99998319
0.99998405
0.99998499
0.99998598
0.99998701
0.99998805
0.99998907
0.99999007
0.99999103
0.99999193
0.99999277
0.99999355
0.99999427
0.99999492
0.9999955
0.99999603
0.9999965
0.99999692
0.99999728
0.99999761
0.99999789
0.99999814
0.99999836
0.99999855
0.99999872
0.99999887
0.99999899
0.9999991
0.9999992
0.99999928
0.99999935
0.99999942
0.99999947
0.99999952
0.99999957
0.9999996
0.99999964
0.99999966
0.99999969
0.99999971
0.99999973
0.99999975
0.99999976
0.99999978
0.99999979
0.9999998
0.99999981
0.99999982
0.99999983
0.99999983
0.99999984
0.99999984
0.99999985
0.99999985
0.99999985
0.99999986
0.99999986
0.99999986
0.99999986
0.99999987
0.99999987
0.99999987
0.99999987
0.99999987
0.99999987
0.99999987
0.99999987
0.99999987
0.99999987
0.99999987
0.99999987
0.99999987
0.99999987
0.99999986
0.99999986
0.99999986
0.99999986
0.99999986
0.99999986
0.99999985
0.99999984
0.99999982
0.99999979
0.99999975
0.99999971
0.99999967
0.99999962
0.99999956
0.9999995
0.99999944
0.99999937
0.9999993
0.99999922
0.99999915
0.99999907
0.99999899
0.99999891
0.99999883
0.99999875
0.99999866
0.99999858
0.99999849
0.99999841
0.99999833
0.99999824
0.99999816
0.99999808
0.999998
0.99999792
0.99999785
0.99999777
0.9999977
0.99999763
0.99999756
0.99999749
0.99999743
0.99999736
0.9999973
0.99999724
0.99999719
0.99999713
0.99999708
0.99999703
0.99999698
0.99999694
0.9999969
0.99999686
0.99999682
0.99999678
0.99999674
0.99999671
0.99999668
0.99999665
0.99999662
0.9999966
0.99999657
0.99999655
0.99999653
0.99999651
0.99999649
0.99999647
0.99999645
0.99999644
0.99999642
0.99999641
0.9999964
0.99999638
0.99999637
0.99999636
0.99999635
0.99999634
0.99999634
0.99999633
0.99999632
0.99999631
0.99999631
0.9999963
0.9999963
0.99999629
0.99999629
0.99999628
0.99999628
0.99999627
0.99999627
0.99999627
0.99999626
0.99999626
0.99999626
0.99999626
0.99999625
0.99999625
0.99999625
0.99999624
0.99999624
0.99999624
0.99999624
0.99999623
0.99999623
0.99999623
0.99999622
0.99999622
0.99999622
0.99999622
0.99999621
0.99999621
0.99999621
0.9999962
0.9999962
0.9999962
0.79286103
0.88389234
0.91732995
0.9357572
0.94757434
0.95590048
0.96219365
0.96720641
0.97135799
0.97489618
0.97797318
0.98068499
0.98309366
0.98524068
0.98715524
0.98885932
0.99037094
0.99170602
0.99287944
0.99390552
0.99479817
0.99557092
0.99623674
0.99680796
0.99729607
0.99771171
0.99806454
0.99836325
0.99861558
0.99882835
0.9990075
0.9991582
0.99928489
0.99939135
0.99948083
0.99955605
0.99961934
0.99967263
0.99971756
0.9997555
0.99978757
0.99981475
0.99983781
0.99985743
0.99987416
0.99988845
0.9999007
0.99991121
0.99992026
0.99992807
0.99993483
0.99994069
0.99994578
0.99995023
0.99995411
0.99995751
0.99996049
0.99996312
0.99996543
0.99996747
0.99996928
0.99997087
0.99997229
0.99997355
0.99997467
0.99997566
0.99997655
0.99997733
0.99997803
0.99997865
0.9999792
0.99997969
0.99998013
0.99998051
0.99998085
0.99998114
0.9999814
0.99998163
0.99998182
0.99998199
0.99998213
0.99998225
0.99998234
0.99998242
0.99998248
0.99998252
0.99998256
0.99998257
0.99998258
0.99998257
0.99998256
0.99998252
0.99998241
0.99998224
0.99998201
0.99998173
0.9999814
0.99998104
0.99998063
0.9999802
0.99997974
0.99997925
0.99997874
0.99997821
0.99997767
0.99997712
0.99997655
0.99997598
0.99997541
0.99997483
0.99997425
0.99997368
0.9999731
0.99997254
0.99997198
0.99997142
0.99997088
0.99997034
0.99996982
0.99996931
0.99996881
0.99996833
0.99996786
0.9999674
0.99996696
0.99996653
0.99996612
0.99996572
0.99996534
0.99996497
0.99996462
0.99996429
0.99996397
0.99996366
0.99996337
0.99996309
0.99996282
0.99996257
0.99996234
0.99996211
0.9999619
0.99996169
0.9999615
0.99996133
0.99996116
0.999961
0.99996085
0.99996071
0.99996058
0.99996046
0.99996034
0.99996023
0.99996013
0.99996004
0.99995995
0.99995987
0.9999598
0.99995973
0.99995966
0.9999596
0.99995954
0.99995949
0.99995944
0.9999594
0.99995936
0.99995932
0.99995928
0.99995925
0.99995922
0.99995919
0.99995916
0.99995914
0.99995911
0.99995909
0.99995907
0.99995905
0.99995904
0.99995902
0.999959
0.99995899
0.99995897
0.99995896
0.99995894
0.99995893
0.99995891
0.9999589
0.99995888
0.99995887
0.99995885
0.99995884
0.99995882
0.99995881
0.99995879
0.99995877
0.99995876
0.99995874
0.99995873
0.99995871
0.9999587
0.99995868
0.00072925713
0.27189889
0.46855495
0.59711856
0.67342519
0.72512171
0.76332666
0.79341132
0.81823775
0.83942831
0.85794368
0.87437054
0.88907642
0.90229864
0.91419775
0.92489029
0.93446893
0.94301442
0.95060242
0.9573068
0.96320084
0.96835723
0.97284739
0.97674048
0.98010252
0.98299557
0.98547717
0.98759998
0.9894116
0.99095464
0.99226687
0.9933815
0.99432751
0.99513001
0.99581068
0.99638809
0.99687811
0.99729427
0.99764802
0.99794908
0.99820564
0.99842462
0.99861184
0.99877221
0.99890984
0.99902821
0.99913023
0.99921836
0.99929466
0.99936086
0.99941844
0.99946864
0.9995125
0.9995509
0.9995846
0.99961424
0.99964035
0.99966341
0.9996838
0.99970187
0.9997179
0.99973214
0.99974481
0.9997561
0.99976615
0.99977512
0.99978313
0.99979027
0.99979665
0.99980233
0.99980741
0.99981192
0.99981594
0.9998195
0.99982266
0.99982546
0.99982791
0.99983007
0.99983195
0.99983358
0.99983498
0.99983618
0.99983719
0.99983802
0.99983871
0.99983925
0.99983966
0.99983995
0.99984014
0.99984023
0.99984024
0.99984019
0.99984
0.9998395
0.99983872
0.99983768
0.99983642
0.99983497
0.99983333
0.99983155
0.99982964
0.99982761
0.99982548
0.99982327
0.999821
0.99981868
0.99981631
0.99981392
0.99981152
0.9998091
0.99980669
0.99980429
0.99980191
0.99979955
0.99979722
0.99979494
0.99979269
0.99979049
0.99978834
0.99978624
0.9997842
0.99978222
0.9997803
0.99977844
0.99977665
0.99977491
0.99977325
0.99977164
0.9997701
0.99976863
0.99976722
0.99976587
0.99976458
0.99976335
0.99976218
0.99976107
0.99976002
0.99975901
0.99975807
0.99975717
0.99975632
0.99975552
0.99975477
0.99975406
0.99975339
0.99975277
0.99975218
0.99975163
0.99975111
0.99975063
0.99975018
0.99974976
0.99974937
0.999749
0.99974866
0.99974834
0.99974805
0.99974778
0.99974753
0.99974729
0.99974708
0.99974687
0.99974669
0.99974652
0.99974636
0.99974621
0.99974608
0.99974595
0.99974584
0.99974573
0.99974563
0.99974554
0.99974545
0.99974537
0.9997453
0.99974523
0.99974517
0.9997451
0.99974505
0.99974499
0.99974494
0.99974488
0.99974483
0.99974478
0.99974472
0.99974467
0.99974462
0.99974457
0.99974451
0.99974446
0.99974441
0.99974436
0.9997443
0.99974425
0.9997442
0.99974414
0.99974409
0.99974404
0.99974398
0.99974392
1.3221473e-05
0.00014286515
0.00025658175
0.018486356
0.078968673
0.1503429
0.22636812
0.29890742
0.36534491
0.42656184
0.48323383
0.53580848
0.58455839
0.62964392
0.6711665
0.70920765
0.74385479
0.77521584
0.80342539
0.82864481
0.85105859
0.87086846
0.88828674
0.9035298
0.91681223
0.92834192
0.93831639
0.94692012
0.95432293
0.96067916
0.96612756
0.97079169
0.97478067
0.97819014
0.98110348
0.98359289
0.98572069
0.98754039
0.98909784
0.99043217
0.9915767
0.9925598
0.99340552
0.99413427
0.99476336
0.99530744
0.99577893
0.99618833
0.99654457
0.99685519
0.99712661
0.99736428
0.99757283
0.9977562
0.99791776
0.99806037
0.99818649
0.99829822
0.99839737
0.9984855
0.99856394
0.99863384
0.99869621
0.9987519
0.99880169
0.99884621
0.99888604
0.99892169
0.99895359
0.99898212
0.99900764
0.99903044
0.99905078
0.9990689
0.99908502
0.99909932
0.99911198
0.99912313
0.99913292
0.99914147
0.9991489
0.99915529
0.99916076
0.99916537
0.9991692
0.99917233
0.99917482
0.99917673
0.99917811
0.99917901
0.99917948
0.99917956
0.99917943
0.99917865
0.9991769
0.99917428
0.99917088
0.9991668
0.99916213
0.99915692
0.99915127
0.99914523
0.99913886
0.99913221
0.99912535
0.99911831
0.99911113
0.99910387
0.99909655
0.9990892
0.99908186
0.99907456
0.99906731
0.99906014
0.99905308
0.99904613
0.99903931
0.99903264
0.99902613
0.99901979
0.99901362
0.99900763
0.99900184
0.99899623
0.99899082
0.99898561
0.99898059
0.99897578
0.99897116
0.99896673
0.9989625
0.99895846
0.99895461
0.99895094
0.99894745
0.99894413
0.99894099
0.99893801
0.99893519
0.99893252
0.99893
0.99892763
0.99892539
0.99892329
0.99892132
0.99891946
0.99891772
0.9989161
0.99891457
0.99891315
0.99891182
0.99891059
0.99890944
0.99890836
0.99890737
0.99890644
0.99890559
0.99890479
0.99890406
0.99890338
0.99890275
0.99890217
0.99890164
0.99890115
0.99890069
0.99890028
0.99889989
0.99889954
0.99889921
0.99889891
0.99889863
0.99889838
0.99889814
0.99889792
0.99889772
0.99889753
0.99889735
0.99889719
0.99889703
0.99889688
0.99889674
0.99889659
0.99889645
0.99889631
0.99889617
0.99889604
0.9988959
0.99889576
0.99889562
0.99889549
0.99889535
0.99889521
0.99889507
0.99889493
0.99889479
0.99889464
0.9988945
0.99889435
0.99889421
0.99889406
1.5597158e-08
6.2676323e-08
1.0702551e-07
6.1906254e-06
2.6215974e-05
5.6619309e-05
9.9752769e-05
0.010217352
0.033833633
0.069856965
0.1140472
0.16415018
0.21824445
0.27467742
0.332027
0.38908304
0.44483876
0.49848456
0.5493995
0.59713876
0.64141666
0.68208643
0.71911792
0.75257501
0.7825937
0.80936218
0.83310328
0.85405972
0.87248215
0.88861993
0.90271427
0.91499346
0.9256698
0.93493793
0.94297418
0.94993671
0.95596623
0.96118701
0.96570816
0.96962502
0.9730205
0.97596651
0.97852517
0.98075007
0.98268735
0.98437665
0.985852
0.98714262
0.98827357
0.98926632
0.99013932
0.99090837
0.99158706
0.99218705
0.99271839
0.9931897
0.99360845
0.99398106
0.9943131
0.99460938
0.99487407
0.9951108
0.99532273
0.99551262
0.99568287
0.99583559
0.99597263
0.99609561
0.99620597
0.99630498
0.99639375
0.99647328
0.99654445
0.99660806
0.9966648
0.99671532
0.99676017
0.99679987
0.99683489
0.99686563
0.99689248
0.99691578
0.99693584
0.99695296
0.99696739
0.99697938
0.99698914
0.99699688
0.99700278
0.99700702
0.99700975
0.99701113
0.99701129
0.997011
0.99700832
0.99700331
0.99699625
0.99698736
0.99697686
0.99696497
0.99695187
0.99693772
0.9969227
0.99690694
0.99689059
0.99687375
0.99685655
0.9968391
0.99682148
0.99680378
0.99678607
0.99676844
0.99675093
0.99673362
0.99671654
0.99669975
0.99668327
0.99666716
0.99665142
0.9966361
0.9966212
0.99660675
0.99659276
0.99657924
0.9965662
0.99655363
0.99654155
0.99652995
0.99651884
0.99650819
0.99649802
0.99648831
0.99647906
0.99647025
0.99646187
0.99645392
0.99644639
0.99643925
0.9964325
0.99642612
0.99642011
0.99641444
0.9964091
0.99640409
0.99639938
0.99639496
0.99639083
0.99638696
0.99638335
0.99637997
0.99637683
0.9963739
0.99637117
0.99636864
0.9963663
0.99636412
0.9963621
0.99636024
0.99635852
0.99635693
0.99635547
0.99635412
0.99635288
0.99635175
0.9963507
0.99634974
0.99634886
0.99634805
0.99634731
0.99634663
0.996346
0.99634543
0.9963449
0.99634442
0.99634397
0.99634356
0.99634317
0.99634281
0.99634247
0.99634216
0.99634184
0.99634153
0.99634123
0.99634093
0.99634064
0.99634034
0.99634005
0.99633976
0.99633946
0.99633917
0.99633887
0.99633858
0.99633828
0.99633798
0.99633767
0.99633736
0.99633705
0.99633673
0.99633641
0.99633608
9.0648584e-12
2.1804337e-11
3.6292854e-11
1.7339421e-09
7.8284957e-09
1.8987199e-08
3.770743e-08
2.4306939e-06
9.617462e-06
0.00025738119
0.0055494907
0.018149418
0.038608381
0.066907687
0.10242814
0.1441441
0.1907902
0.24099896
0.2934097
0.3467494
0.39988773
0.45186917
0.5019261
0.54947695
0.59411368
0.63558244
0.67376048
0.708632
0.74026481
0.76878889
0.79437764
0.81723215
0.83756842
0.85560735
0.87156723
0.88565834
0.89807925
0.90901464
0.91863402
0.92709148
0.93452579
0.94106112
0.94680791
0.95186387
0.95631514
0.96023738
0.96369688
0.9667516
0.9694521
0.97184249
0.97396114
0.97584148
0.97751258
0.97899975
0.98032501
0.98150754
0.98256405
0.98350911
0.98435544
0.98511415
0.98579497
0.98640642
0.98695597
0.98745018
0.98789485
0.98829506
0.98865533
0.98897963
0.98927151
0.98953409
0.98977018
0.98998227
0.99017258
0.99034313
0.9904957
0.99063191
0.99075321
0.99086093
0.99095627
0.99104029
0.991114
0.99117829
0.99123398
0.99128183
0.99132253
0.99135671
0.99138495
0.9914078
0.99142574
0.99143923
0.99144871
0.99145454
0.99145711
0.99145674
0.99145398
0.99144584
0.99143294
0.99141583
0.99139502
0.99137099
0.99134417
0.99131495
0.99128372
0.9912508
0.9912165
0.99118112
0.99114491
0.9911081
0.99107091
0.99103353
0.99099614
0.99095889
0.99092192
0.99088536
0.99084931
0.99081388
0.99077915
0.99074519
0.99071206
0.99067981
0.99064849
0.99061813
0.99058877
0.9905604
0.99053306
0.99050675
0.99048147
0.99045722
0.99043399
0.99041178
0.99039056
0.99037033
0.99035106
0.99033274
0.99031533
0.99029882
0.99028318
0.99026838
0.9902544
0.9902412
0.99022876
0.99021705
0.99020603
0.99019569
0.99018599
0.99017691
0.99016841
0.99016046
0.99015305
0.99014613
0.9901397
0.99013371
0.99012816
0.990123
0.99011823
0.99011381
0.99010973
0.99010596
0.99010249
0.99009929
0.99009635
0.99009365
0.99009118
0.99008891
0.99008683
0.99008493
0.9900832
0.99008161
0.99008017
0.99007885
0.99007764
0.99007654
0.99007554
0.99007461
0.99007377
0.99007299
0.99007228
0.99007162
0.990071
0.9900704
0.99006982
0.99006925
0.99006869
0.99006814
0.9900676
0.99006706
0.99006653
0.99006599
0.99006546
0.99006492
0.99006438
0.99006383
0.99006328
0.99006272
0.99006215
0.99006158
0.99006099
0.9900604
0.99005979
0.99005918
1.9441807e-15
5.6111741e-15
1.0497352e-14
3.9236902e-13
2.0041959e-12
5.5512296e-12
1.239987e-11
5.8794623e-10
2.6960507e-09
6.1325738e-08
1.3142121e-06
0.00011629028
0.0020456686
0.0074780251
0.017767447
0.033886299
0.05629069
0.08493341
0.11933965
0.1587143
0.20205747
0.24827231
0.29625597
0.3449691
0.39348382
0.44101177
0.48691572
0.53070856
0.57204339
0.61069804
0.64655672
0.67959091
0.70984092
0.73739896
0.7623944
0.78498132
0.80532828
0.82361029
0.84000263
0.85467632
0.86779495
0.87951251
0.88997224
0.89930597
0.90763406
0.91506563
0.92169907
0.92762268
0.93291539
0.93764755
0.9418817
0.94567331
0.94907153
0.95211985
0.95485672
0.9573161
0.95952802
0.961519
0.96331248
0.96492918
0.96638745
0.96770352
0.96889178
0.96996501
0.97093455
0.9718105
0.97260184
0.97331661
0.97396197
0.97454434
0.97506949
0.97554257
0.97596825
0.97635073
0.97669379
0.97700089
0.97727512
0.97751932
0.97773608
0.97792774
0.97809645
0.97824418
0.97837274
0.97848378
0.97857883
0.97865928
0.97872644
0.9787815
0.97882556
0.97885964
0.97888468
0.97890156
0.97891109
0.97891401
0.97891316
0.97890315
0.97888457
0.97885843
0.97882563
0.97878703
0.97874341
0.97869549
0.97864393
0.97858933
0.97853226
0.97847321
0.97841264
0.97835098
0.97828861
0.97822586
0.97816304
0.97810044
0.97803829
0.97797682
0.97791622
0.97785665
0.97779826
0.97774118
0.97768552
0.97763136
0.97757877
0.97752782
0.97747855
0.977431
0.97738518
0.97734111
0.97729879
0.97725822
0.97721939
0.97718227
0.97714684
0.97711308
0.97708095
0.97705041
0.97702143
0.97699396
0.97696795
0.97694337
0.97692016
0.97689828
0.97687767
0.97685829
0.97684009
0.97682301
0.97680701
0.97679204
0.97677805
0.976765
0.97675283
0.97674151
0.97673098
0.97672121
0.97671215
0.97670377
0.97669602
0.97668887
0.97668228
0.97667621
0.97667063
0.97666552
0.97666083
0.97665654
0.97665262
0.97664905
0.97664579
0.97664283
0.97664014
0.9766377
0.97663549
0.97663348
0.97663167
0.97663003
0.97662854
0.9766272
0.97662597
0.97662486
0.97662385
0.97662293
0.97662205
0.9766212
0.97662038
0.97661958
0.97661881
0.97661806
0.97661732
0.97661659
0.97661586
0.97661513
0.9766144
0.97661366
0.97661292
0.97661216
0.97661139
0.97661061
0.97660981
0.97660899
0.97660815
0.97660729
0.97660641
0.97660552
4.3712353e-19
1.410919e-18
2.9051819e-18
8.1057579e-17
4.6889898e-16
1.487394e-15
3.7439808e-15
1.4359689e-13
8.1112409e-13
2.2244333e-11
6.9225614e-10
3.5013499e-08
5.9579299e-07
0.00020014273
0.0014266277
0.0047210106
0.011212867
0.021899757
0.037494087
0.058345516
0.084432058
0.11540196
0.15064581
0.18938065
0.23073238
0.27380763
0.31775054
0.36178324
0.40523109
0.44753478
0.48825229
0.52705344
0.56370956
0.5980805
0.63010051
0.65976428
0.68711382
0.71222677
0.73520622
0.75617225
0.77525499
0.79258915
0.80830975
0.82254904
0.83543423
0.84708594
0.85761729
0.8671334
0.87573123
0.88349964
0.89051968
0.89686499
0.90260219
0.90779146
0.91248698
0.91673748
0.92058671
0.92407394
0.92723436
0.93009954
0.93269774
0.93505433
0.93719202
0.93913122
0.94089024
0.94248554
0.94393192
0.94524271
0.94642993
0.94750444
0.94847604
0.94935363
0.95014526
0.95085824
0.95149924
0.95207431
0.952589
0.95304836
0.95345702
0.95381924
0.95413891
0.95441961
0.95466465
0.95487706
0.95505965
0.95521502
0.95534556
0.95545349
0.95554085
0.95560955
0.95566135
0.95569786
0.95572061
0.95573099
0.95573029
0.95571895
0.95569392
0.95565679
0.95560905
0.95555206
0.95548706
0.95541521
0.95533757
0.9552551
0.95516869
0.95507914
0.95498718
0.95489349
0.95479865
0.95470321
0.95460765
0.95451242
0.95441788
0.95432439
0.95423225
0.95414171
0.954053
0.95396632
0.95388182
0.95379965
0.95371991
0.9536427
0.95356809
0.95349611
0.9534268
0.95336019
0.95329626
0.95323502
0.95317643
0.95312048
0.95306711
0.9530163
0.95296797
0.95292208
0.95287855
0.95283734
0.95279836
0.95276154
0.9527268
0.95269409
0.95266331
0.95263439
0.95260725
0.95258182
0.95255802
0.95253578
0.95251503
0.95249568
0.95247768
0.95246094
0.95244541
0.95243101
0.95241769
0.95240539
0.95239403
0.95238357
0.95237396
0.95236513
0.95235703
0.95234963
0.95234286
0.95233669
0.95233108
0.95232598
0.95232135
0.95231716
0.95231337
0.95230996
0.95230688
0.95230411
0.95230162
0.95229938
0.95229737
0.95229557
0.95229395
0.95229249
0.95229118
0.95228996
0.95228877
0.95228765
0.95228658
0.95228555
0.95228457
0.9522836
0.95228266
0.95228173
0.95228081
0.95227988
0.95227895
0.952278
0.95227704
0.95227606
0.95227505
0.95227402
0.95227295
0.95227185
0.95227071
0.95226953
0.95226832
0.95226709
1.0154861e-22
3.6498964e-22
8.159978e-22
1.6634451e-20
1.0688569e-19
3.8665161e-19
2.0691817e-18
5.7306805e-16
1.5621584e-13
2.2981796e-11
1.5930884e-09
3.8120532e-08
2.2339981e-07
6.5525543e-07
1.6515639e-05
0.00030562264
0.0013866354
0.0040109321
0.0090414023
0.01730537
0.029466373
0.04594006
0.066860365
0.092089282
0.12125744
0.15382161
0.1891273
0.22646779
0.26513421
0.30445437
0.3438199
0.3827027
0.42066249
0.45734744
0.49248989
0.52589869
0.55744991
0.58707669
0.61475922
0.6405153
0.66439177
0.68645711
0.70679502
0.72549919
0.74266905
0.75840635
0.7728126
0.7859871
0.79802558
0.80901919
0.81905391
0.82821024
0.83656301
0.84418151
0.85112953
0.85746565
0.86324352
0.86851211
0.87331608
0.87769612
0.8816892
0.88532897
0.88864597
0.89166796
0.89442018
0.89692555
0.89920491
0.90127725
0.90315983
0.9048684
0.90641732
0.9078197
0.90908754
0.91023182
0.91126259
0.91218908
0.91301977
0.91376245
0.9144243
0.91501194
0.91553148
0.91598855
0.91638836
0.91673574
0.91703515
0.91729073
0.9175063
0.91768543
0.9178314
0.91794728
0.91803589
0.91809987
0.91814165
0.91816348
0.91816746
0.91815486
0.91812302
0.91807422
0.91801053
0.91793389
0.91784607
0.91774869
0.91764324
0.91753109
0.91741347
0.91729152
0.91716627
0.91703864
0.91690947
0.91677952
0.91664945
0.91651987
0.91639131
0.91626423
0.91613906
0.91601614
0.91589578
0.91577826
0.91566378
0.91555253
0.91544466
0.91534028
0.91523948
0.91514233
0.91504886
0.91495909
0.91487301
0.91479062
0.91471187
0.91463672
0.91456512
0.91449699
0.91443226
0.91437085
0.91431267
0.91425762
0.91420562
0.91415654
0.91411031
0.9140668
0.91402591
0.91398754
0.91395158
0.91391793
0.91388648
0.91385714
0.91382978
0.91380433
0.91378068
0.91375874
0.91373841
0.91371961
0.91370225
0.91368625
0.91367152
0.91365799
0.91364558
0.91363422
0.91362384
0.91361438
0.91360577
0.91359795
0.91359087
0.91358447
0.91357869
0.9135735
0.91356883
0.91356465
0.91356091
0.91355758
0.91355462
0.91355199
0.91354966
0.91354759
0.91354576
0.91354414
0.91354267
0.91354122
0.91353989
0.91353864
0.91353748
0.91353638
0.91353533
0.91353431
0.91353332
0.91353235
0.91353138
0.9135304
0.91352941
0.91352839
0.91352735
0.91352627
0.91352515
0.91352398
0.91352276
0.91352148
0.91352015
0.91351875
0.9135173
0.91351581
2.4058723e-26
9.6335483e-26
2.3426639e-25
3.5207927e-24
2.5841094e-23
1.9959764e-21
1.9468706e-18
1.2016616e-15
3.9508242e-13
6.7383259e-11
5.5862876e-09
1.6472406e-07
1.1585685e-06
3.6923883e-06
7.1355114e-06
1.0597138e-05
9.3421543e-05
0.000495942
0.0016506139
0.0041538259
0.0086824827
0.01588996
0.026312062
0.040302052
0.058001013
0.079340251
0.10406744
0.13178685
0.16200486
0.19417439
0.22773373
0.26213782
0.29688112
0.33151281
0.36564509
0.39895602
0.43118839
0.46214559
0.49168579
0.51971517
0.54618075
0.57106352
0.59437189
0.61613585
0.63640177
0.65522806
0.67268138
0.68883364
0.70375952
0.71753458
0.73023368
0.74192997
0.75269398
0.76259313
0.77169132
0.78004878
0.78772194
0.79476347
0.80122237
0.80714408
0.81257065
0.81754092
0.82209073
0.8262531
0.83005845
0.83353478
0.83670787
0.83960142
0.84223727
0.84463554
0.84681474
0.84879195
0.85058292
0.85220219
0.85366317
0.85497828
0.856159
0.85721595
0.85815897
0.85899717
0.85973903
0.86039238
0.86096451
0.8614622
0.86189171
0.8622589
0.86256919
0.86282762
0.86303888
0.86320732
0.86333697
0.86343159
0.86349465
0.86352938
0.86353877
0.86352346
0.86348403
0.86342336
0.8633441
0.86324868
0.86313936
0.86301819
0.86288705
0.86274766
0.86260159
0.86245025
0.86229494
0.86213681
0.86197691
0.86181618
0.86165546
0.86149548
0.8613369
0.8611803
0.86102619
0.86087499
0.86072709
0.86058279
0.86044237
0.86030605
0.86017399
0.86004632
0.85992316
0.85980456
0.85969057
0.8595812
0.85947644
0.85937626
0.8592806
0.85918942
0.85910262
0.85902013
0.85894184
0.85886764
0.85879742
0.85873107
0.85866845
0.85860944
0.85855391
0.85850172
0.85845274
0.85840685
0.8583639
0.85832377
0.85828632
0.85825144
0.85821898
0.85818884
0.85816088
0.858135
0.85811107
0.85808899
0.85806866
0.85804996
0.85803281
0.85801709
0.85800273
0.85798964
0.85797772
0.8579669
0.8579571
0.85794825
0.85794028
0.85793312
0.85792671
0.85792098
0.85791589
0.85791137
0.85790737
0.85790386
0.85790077
0.85789808
0.85789573
0.85789369
0.85789193
0.85789034