/*--------------------------------*- C++ -*----------------------------------*\
| =========                 |                                                 |
| \\      /  F ield         | OpenFOAM: The Open Source CFD Toolbox           |
|  \\    /   O peration     | Version:  2406                                  |
|   \\  /    A nd           | Website:  www.openfoam.com                      |
|    \\/     M anipulation  |                                                 |
\*---------------------------------------------------------------------------*/
FoamFile
{
    version     2.0;
    format      ascii;
    arch        "LSB;label=32;scalar=64";
    class       volVectorField;
    location    "1057";
    object      U;
}
// * * * * * * * * * * * * * * * * * * * * * * * * * * * * * * * * * * * * * //

dimensions      [0 1 -1 0 0 0 0];

internalField   nonuniform List<vector> 
7000
(
(-0.00033328579 0.00029139981 0)
(-0.0011762187 0.0002232629 0)
(-0.0015019878 7.5272575e-05 0)
(-0.0013409844 -3.9322752e-05 0)
(-0.00085532637 -0.00010170713 0)
(-0.00023265527 -0.00012307817 0)
(0.00039810387 -0.00011866909 0)
(0.00096665728 -0.0001020589 0)
(0.0014445369 -8.1952518e-05 0)
(0.0018274636 -6.2755853e-05 0)
(0.0021231395 -4.6268767e-05 0)
(0.0023438236 -3.2905809e-05 0)
(0.0025024726 -2.2435785e-05 0)
(0.0026109663 -1.439862e-05 0)
(0.0026794785 -8.308294e-06 0)
(0.0027164131 -3.7350294e-06 0)
(0.0027285816 -3.2866345e-07 0)
(0.0027214511 2.1854629e-06 0)
(0.0026993908 4.020211e-06 0)
(0.0026658863 5.3368719e-06 0)
(0.0026237247 6.2572747e-06 0)
(0.0025751421 6.8735005e-06 0)
(0.002521938 7.2555441e-06 0)
(0.0024655643 7.457008e-06 0)
(0.0024071947 7.5192672e-06 0)
(0.0023477782 7.4745079e-06 0)
(0.0022880815 7.3479486e-06 0)
(0.0022287223 7.159472e-06 0)
(0.0021701956 6.9248343e-06 0)
(0.0021128953 6.6565692e-06 0)
(0.0020571312 6.3646722e-06 0)
(0.0020031436 6.0571232e-06 0)
(0.0019511143 5.7402906e-06 0)
(0.0019011769 5.4192469e-06 0)
(0.0018534244 5.0980176e-06 0)
(0.0018079164 4.7797788e-06 0)
(0.0017646841 4.4670161e-06 0)
(0.0017237359 4.1616526e-06 0)
(0.0016850609 3.8651531e-06 0)
(0.0016486324 3.5786086e-06 0)
(0.0016144109 3.3028059e-06 0)
(0.0015823469 3.0382846e-06 0)
(0.0015523822 2.785384e-06 0)
(0.0015244525 2.5442818e-06 0)
(0.0014984884 2.3150258e-06 0)
(0.001474417 2.0975599e-06 0)
(0.0014521626 1.8917463e-06 0)
(0.0014316481 1.6973821e-06 0)
(0.0014127954 1.5142148e-06 0)
(0.0013955261 1.3419534e-06 0)
(0.0013797621 1.1802782e-06 0)
(0.0013654261 1.0288486e-06 0)
(0.001352442 8.8730931e-07 0)
(0.0013407349 7.5529548e-07 0)
(0.0013302319 6.324365e-07 0)
(0.0013208616 5.1835933e-07 0)
(0.0013125548 4.1269099e-07 0)
(0.0013052447 3.150606e-07 0)
(0.0012988663 2.2510091e-07 0)
(0.0012933574 1.4244957e-07 0)
(0.0012886579 6.6750173e-08 0)
(0.0012847101 -2.3470781e-09 0)
(0.001281459 -6.5184583e-08 0)
(0.0012788518 -1.2209698e-07 0)
(0.0012768381 -1.7341061e-07 0)
(0.0012753701 -2.1944322e-07 0)
(0.0012744022 -2.6050368e-07 0)
(0.0012738912 -2.9689173e-07 0)
(0.0012737963 -3.2889791e-07 0)
(0.0012740788 -3.5680287e-07 0)
(0.0012747021 -3.8087565e-07 0)
(0.001275632 -4.0137713e-07 0)
(0.0012768362 -4.1855899e-07 0)
(0.0012782843 -4.326624e-07 0)
(0.0012799482 -4.439183e-07 0)
(0.0012818011 -4.5254788e-07 0)
(0.0012838186 -4.5876267e-07 0)
(0.0012859776 -4.6276353e-07 0)
(0.0012882568 -4.6474093e-07 0)
(0.0012906364 -4.6487569e-07 0)
(0.0012930983 -4.6333903e-07 0)
(0.0012956255 -4.6029307e-07 0)
(0.0012982027 -4.5589052e-07 0)
(0.0013008157 -4.5027528e-07 0)
(0.0013034515 -4.4358238e-07 0)
(0.0013060984 -4.3593837e-07 0)
(0.0013087456 -4.2746159e-07 0)
(0.0013113835 -4.1826242e-07 0)
(0.0013140035 -4.0844351e-07 0)
(0.0013165976 -3.9810019e-07 0)
(0.001319159 -3.8732065e-07 0)
(0.0013216815 -3.7618642e-07 0)
(0.0013241597 -3.6477264e-07 0)
(0.0013265889 -3.5314836e-07 0)
(0.0013289649 -3.4137675e-07 0)
(0.0013312843 -3.2951558e-07 0)
(0.0013335442 -3.1761723e-07 0)
(0.0013357421 -3.0572934e-07 0)
(0.001337876 -2.938949e-07 0)
(0.0013399444 -2.8215264e-07 0)
(0.0013419462 -2.7053707e-07 0)
(0.0013438806 -2.5907902e-07 0)
(0.0013457471 -2.478055e-07 0)
(0.0013475455 -2.3674041e-07 0)
(0.001349276 -2.2590446e-07 0)
(0.0013509389 -2.1531564e-07 0)
(0.0013525349 -2.0498903e-07 0)
(0.0013540646 -1.9493756e-07 0)
(0.0013555289 -1.8517132e-07 0)
(0.0013569291 -1.7569879e-07 0)
(0.0013582663 -1.6652617e-07 0)
(0.0013595418 -1.5765812e-07 0)
(0.0013607571 -1.4909773e-07 0)
(0.0013619136 -1.4084664e-07 0)
(0.0013630131 -1.3290499e-07 0)
(0.0013640571 -1.2527191e-07 0)
(0.0013650473 -1.1794509e-07 0)
(0.0013659855 -1.1092151e-07 0)
(0.0013668734 -1.0419732e-07 0)
(0.0013677127 -9.7767941e-08 0)
(0.0013685053 -9.1627989e-08 0)
(0.0013692528 -8.577167e-08 0)
(0.0013699571 -8.0192321e-08 0)
(0.00137062 -7.4883156e-08 0)
(0.0013712431 -6.983699e-08 0)
(0.0013718281 -6.5046493e-08 0)
(0.0013723768 -6.050382e-08 0)
(0.0013728907 -5.6201388e-08 0)
(0.0013733716 -5.2130678e-08 0)
(0.0013738209 -4.8283771e-08 0)
(0.0013742402 -4.4652246e-08 0)
(0.001374631 -4.1227937e-08 0)
(0.0013749948 -3.8002892e-08 0)
(0.0013753329 -3.49691e-08 0)
(0.0013756468 -3.2118535e-08 0)
(0.0013759376 -2.9443345e-08 0)
(0.0013762068 -2.6935488e-08 0)
(0.0013764555 -2.4587297e-08 0)
(0.0013766849 -2.2391409e-08 0)
(0.0013768962 -2.0340595e-08 0)
(0.0013770903 -1.8427724e-08 0)
(0.0013772684 -1.6645917e-08 0)
(0.0013774315 -1.4988209e-08 0)
(0.0013775804 -1.3448023e-08 0)
(0.0013777161 -1.2019235e-08 0)
(0.0013778395 -1.0695595e-08 0)
(0.0013779514 -9.4715299e-09 0)
(0.0013780525 -8.3411761e-09 0)
(0.0013781436 -7.2992949e-09 0)
(0.0013782254 -6.3404892e-09 0)
(0.0013782986 -5.4599067e-09 0)
(0.0013783638 -4.6526451e-09 0)
(0.0013784215 -3.9142159e-09 0)
(0.0013784724 -3.2403591e-09 0)
(0.001378517 -2.6267849e-09 0)
(0.0013785558 -2.0696582e-09 0)
(0.0013785893 -1.5649385e-09 0)
(0.0013786178 -1.1091118e-09 0)
(0.0013786419 -6.9880666e-10 0)
(0.0013786619 -3.309594e-10 0)
(0.0013786781 -2.5126072e-12 0)
(0.001378691 2.893155e-10 0)
(0.0013787008 5.4742556e-10 0)
(0.0013787078 7.7430968e-10 0)
(0.0013787124 9.724116e-10 0)
(0.0013787147 1.1438849e-09 0)
(0.001378715 1.2909232e-09 0)
(0.0013787136 1.4153675e-09 0)
(0.0013787106 1.5192751e-09 0)
(0.0013787063 1.6041872e-09 0)
(0.0013787008 1.6718839e-09 0)
(0.0013786943 1.7237377e-09 0)
(0.0013786869 1.7613003e-09 0)
(0.0013786789 1.7856852e-09 0)
(0.0013786702 1.7984555e-09 0)
(0.0013786611 1.8005325e-09 0)
(0.0013786516 1.7931504e-09 0)
(0.0013786419 1.7771253e-09 0)
(0.001378632 1.7533811e-09 0)
(0.0013786221 1.7224787e-09 0)
(0.0013786121 1.6856774e-09 0)
(0.0013786023 1.6434477e-09 0)
(0.0013785925 1.596627e-09 0)
(0.001378583 1.5460346e-09 0)
(0.0013785738 1.4915085e-09 0)
(0.0013785648 1.4342378e-09 0)
(0.0013785562 1.3736827e-09 0)
(0.001378548 1.3110646e-09 0)
(0.0013785402 1.2455466e-09 0)
(0.0013785329 1.1780993e-09 0)
(0.0013785261 1.1070687e-09 0)
(0.0013785198 1.0324735e-09 0)
(0.0013785141 9.5094253e-10 0)
(0.0013785091 8.5956218e-10 0)
(0.0013785048 7.5178213e-10 0)
(0.0013785014 6.1825322e-10 0)
(0.0013784989 4.4944525e-10 0)
(0.0013784974 2.5870419e-10 0)
(0.0013784974 -2.5723895e-11 0)
(0.0013784989 -6.1169742e-10 0)
(-0.00049782715 0.0013280248 0)
(-0.001729688 0.0010377173 0)
(-0.0017375724 8.3963963e-05 0)
(-0.00092373243 -0.00064014703 0)
(0.00032971001 -0.0010221519 0)
(0.0017175318 -0.0011332809 0)
(0.0030497393 -0.0010761282 0)
(0.0042290136 -0.00093694535 0)
(0.0052199344 -0.00077142906 0)
(0.0060213333 -0.00060963749 0)
(0.0066485803 -0.00046529697 0)
(0.0071236146 -0.00034287445 0)
(0.0074695866 -0.00024211145 0)
(0.0077082139 -0.00016069617 0)
(0.0078587019 -9.569302e-05 0)
(0.0079374895 -4.4227285e-05 0)
(0.0079583929 -3.763972e-06 0)
(0.0079329009 2.7824749e-05 0)
(0.0078705087 5.228609e-05 0)
(0.0077790442 7.1021598e-05 0)
(0.0076649615 8.5147377e-05 0)
(0.0075335891 9.5551642e-05 0)
(0.0073893317 0.00010294357 0)
(0.0072358353 0.0001078924 0)
(0.0070761189 0.0001108579 0)
(0.0069126818 0.00011221387 0)
(0.0067475899 0.00011226612 0)
(0.0065825459 0.00011126628 0)
(0.0064189475 0.00010942243 0)
(0.0062579343 0.00010690735 0)
(0.006100428 0.00010386496 0)
(0.005947165 0.00010041546 0)
(0.0057987249 9.6659293e-05 0)
(0.0056555534 9.2680514e-05 0)
(0.0055179829 8.8549382e-05 0)
(0.0053862495 8.4324559e-05 0)
(0.0052605076 8.0054903e-05 0)
(0.005140843 7.5780967e-05 0)
(0.0050272831 7.1536253e-05 0)
(0.0049198068 6.7348266e-05 0)
(0.0048183523 6.3239412e-05 0)
(0.0047228244 5.9227753e-05 0)
(0.0046331003 5.5327654e-05 0)
(0.0045490348 5.1550338e-05 0)
(0.0044704647 4.7904357e-05 0)
(0.0043972132 4.4395994e-05 0)
(0.0043290923 4.1029613e-05 0)
(0.0042659066 3.7807954e-05 0)
(0.0042074552 3.4732387e-05 0)
(0.0041535336 3.1803135e-05 0)
(0.0041039361 2.9019453e-05 0)
(0.0040584569 2.6379797e-05 0)
(0.0040168912 2.3881953e-05 0)
(0.0039790369 2.1523159e-05 0)
(0.0039446947 1.9300206e-05 0)
(0.0039136696 1.7209521e-05 0)
(0.003885771 1.5247239e-05 0)
(0.0038608133 1.3409272e-05 0)
(0.0038386165 1.1691357e-05 0)
(0.0038190062 1.0089102e-05 0)
(0.0038018143 8.5980332e-06 0)
(0.0037868787 7.2136186e-06 0)
(0.0037740436 5.931305e-06 0)
(0.0037631597 4.7465405e-06 0)
(0.0037540841 3.6547967e-06 0)
(0.0037466803 2.6515879e-06 0)
(0.0037408181 1.7324874e-06 0)
(0.0037363739 8.9314192e-07 0)
(0.0037332299 1.2928475e-07 0)
(0.0037312749 -5.6325445e-07 0)
(0.0037304032 -1.1885439e-06 0)
(0.0037305155 -1.7505361e-06 0)
(0.0037315176 -2.2530608e-06 0)
(0.0037333214 -2.699827e-06 0)
(0.0037358438 -3.0944169e-06 0)
(0.0037390071 -3.440283e-06 0)
(0.0037427383 -3.7407454e-06 0)
(0.0037469695 -3.9989854e-06 0)
(0.0037516373 -4.2180453e-06 0)
(0.0037566829 -4.4008324e-06 0)
(0.0037620513 -4.5501197e-06 0)
(0.003767692 -4.6685477e-06 0)
(0.0037735581 -4.7586251e-06 0)
(0.0037796065 -4.8227311e-06 0)
(0.0037857974 -4.8631175e-06 0)
(0.0037920944 -4.8819118e-06 0)
(0.0037984642 -4.8811205e-06 0)
(0.0038048766 -4.8626324e-06 0)
(0.0038113039 -4.8282221e-06 0)
(0.0038177211 -4.7795541e-06 0)
(0.0038241058 -4.7181868e-06 0)
(0.0038304378 -4.6455763e-06 0)
(0.003836699 -4.563081e-06 0)
(0.0038428734 -4.4719657e-06 0)
(0.0038489468 -4.3734052e-06 0)
(0.0038549069 -4.2684889e-06 0)
(0.0038607429 -4.1582244e-06 0)
(0.0038664455 -4.043542e-06 0)
(0.0038720068 -3.9252985e-06 0)
(0.0038774203 -3.8042812e-06 0)
(0.0038826807 -3.6812113e-06 0)
(0.0038877836 -3.5567476e-06 0)
(0.0038927257 -3.4314897e-06 0)
(0.0038975048 -3.3059822e-06 0)
(0.0039021193 -3.1807177e-06 0)
(0.0039065684 -3.05614e-06 0)
(0.0039108522 -2.9326465e-06 0)
(0.0039149711 -2.8105925e-06 0)
(0.0039189263 -2.690292e-06 0)
(0.0039227194 -2.5720223e-06 0)
(0.0039263525 -2.4560253e-06 0)
(0.0039298281 -2.3425111e-06 0)
(0.003933149 -2.2316598e-06 0)
(0.0039363183 -2.1236241e-06 0)
(0.0039393393 -2.0185302e-06 0)
(0.0039422158 -1.9164812e-06 0)
(0.0039449514 -1.8175577e-06 0)
(0.0039475501 -1.7218209e-06 0)
(0.0039500161 -1.6293137e-06 0)
(0.0039523534 -1.540063e-06 0)
(0.0039545662 -1.4540799e-06 0)
(0.003956659 -1.3713623e-06 0)
(0.0039586359 -1.2918949e-06 0)
(0.0039605013 -1.2156524e-06 0)
(0.0039622594 -1.1425991e-06 0)
(0.0039639147 -1.0726913e-06 0)
(0.0039654712 -1.0058772e-06 0)
(0.0039669333 -9.4209869e-07 0)
(0.0039683049 -8.812904e-07 0)
(0.0039695902 -8.2338312e-07 0)
(0.0039707931 -7.6830259e-07 0)
(0.0039719176 -7.1597174e-07 0)
(0.0039729673 -6.66311e-07 0)
(0.003973946 -6.1923858e-07 0)
(0.0039748574 -5.7467063e-07 0)
(0.0039757047 -5.3252205e-07 0)
(0.0039764915 -4.9270637e-07 0)
(0.0039772209 -4.5513723e-07 0)
(0.0039778962 -4.1972869e-07 0)
(0.0039785203 -3.8639542e-07 0)
(0.0039790962 -3.550524e-07 0)
(0.0039796267 -3.2561557e-07 0)
(0.0039801144 -2.9800143e-07 0)
(0.0039805619 -2.7212831e-07 0)
(0.0039809717 -2.4791654e-07 0)
(0.0039813462 -2.2528785e-07 0)
(0.0039816877 -2.0416656e-07 0)
(0.0039819981 -1.8447813e-07 0)
(0.0039822797 -1.661507e-07 0)
(0.0039825343 -1.4911397e-07 0)
(0.0039827639 -1.3330037e-07 0)
(0.0039829701 -1.1864417e-07 0)
(0.0039831546 -1.0508234e-07 0)
(0.003983319 -9.2554329e-08 0)
(0.0039834648 -8.1001294e-08 0)
(0.0039835934 -7.0367115e-08 0)
(0.0039837062 -6.0597151e-08 0)
(0.0039838043 -5.1639742e-08 0)
(0.003983889 -4.3445517e-08 0)
(0.0039839614 -3.5967839e-08 0)
(0.0039840225 -2.9161745e-08 0)
(0.0039840733 -2.2984532e-08 0)
(0.0039841148 -1.7394972e-08 0)
(0.0039841477 -1.2354318e-08 0)
(0.003984173 -7.8257408e-09 0)
(0.0039841913 -3.7746329e-09 0)
(0.0039842034 -1.6799807e-10 0)
(0.0039842099 3.0250504e-09 0)
(0.0039842114 5.8342267e-09 0)
(0.0039842085 8.2868422e-09 0)
(0.0039842018 1.0409347e-08 0)
(0.0039841917 1.222606e-08 0)
(0.0039841787 1.3760399e-08 0)
(0.0039841632 1.5033785e-08 0)
(0.0039841456 1.606721e-08 0)
(0.0039841263 1.687943e-08 0)
(0.0039841056 1.7488646e-08 0)
(0.0039840839 1.7911098e-08 0)
(0.0039840613 1.8162338e-08 0)
(0.0039840382 1.8256367e-08 0)
(0.0039840147 1.8207563e-08 0)
(0.0039839913 1.8028116e-08 0)
(0.0039839679 1.7730096e-08 0)
(0.0039839449 1.7324154e-08 0)
(0.0039839223 1.6818751e-08 0)
(0.0039839004 1.622326e-08 0)
(0.0039838793 1.5543353e-08 0)
(0.0039838591 1.4786265e-08 0)
(0.00398384 1.3954069e-08 0)
(0.003983822 1.3049363e-08 0)
(0.0039838053 1.2066952e-08 0)
(0.00398379 1.0999777e-08 0)
(0.0039837763 9.8290147e-09 0)
(0.0039837642 8.5298975e-09 0)
(0.0039837541 7.0656449e-09 0)
(0.003983746 5.3981833e-09 0)
(0.0039837402 3.508905e-09 0)
(0.0039837368 1.445507e-09 0)
(0.0039837361 -6.7123483e-10 0)
(0.0039837376 -2.3716759e-09 0)
(-0.00047996362 0.0026268537 0)
(-0.00082461074 0.0013821332 0)
(0.00053270855 -0.00069690886 0)
(0.0024210981 -0.0019935194 0)
(0.0043298075 -0.0025643645 0)
(0.0060958567 -0.0026405441 0)
(0.0076488311 -0.0024328106 0)
(0.0089661784 -0.0020969795 0)
(0.010054465 -0.0017274082 0)
(0.010932019 -0.0013733555 0)
(0.011621055 -0.0010569764 0)
(0.012144725 -0.00078537805 0)
(0.0125255 -0.00055790799 0)
(0.012784241 -0.00037040546 0)
(0.012939769 -0.00021752214 0)
(0.013008749 -9.3887775e-05 0)
(0.013005751 5.3720361e-06 0)
(0.012943381 8.4486317e-05 0)
(0.012832467 0.00014702045 0)
(0.012682285 0.00019591772 0)
(0.012500762 0.00023358795 0)
(0.012294662 0.0002620009 0)
(0.012069748 0.0002827694 0)
(0.011830926 0.00029721896 0)
(0.011582365 0.00030644413 0)
(0.011327601 0.00031135341 0)
(0.011069627 0.00031270467 0)
(0.010810962 0.00031113302 0)
(0.010553721 0.00030717288 0)
(0.010299667 0.00030127537 0)
(0.010050257 0.00029382229 0)
(0.0098066828 0.00028513732 0)
(0.0095699091 0.00027549514 0)
(0.0093407008 0.00026512886 0)
(0.0091196512 0.00025423625 0)
(0.008907205 0.00024298481 0)
(0.008703679 0.00023151613 0)
(0.0085092799 0.00021994953 0)
(0.0083241203 0.00020838518 0)
(0.0081482322 0.00019690669 0)
(0.0079815793 0.00018558347 0)
(0.007824068 0.00017447264 0)
(0.0076755561 0.00016362073 0)
(0.0075358617 0.00015306516 0)
(0.0074047699 0.0001428355 0)
(0.0072820392 0.00013295457 0)
(0.0071674072 0.00012343941 0)
(0.007060595 0.0001143021 0)
(0.0069613115 0.00010555048 0)
(0.0068692569 9.7188794e-05 0)
(0.0067841262 8.9218201e-05 0)
(0.0067056112 8.163728e-05 0)
(0.0066334031 7.4442419e-05 0)
(0.0065671947 6.7628176e-05 0)
(0.0065066816 6.1187582e-05 0)
(0.0064515639 5.5112407e-05 0)
(0.0064015473 4.9393389e-05 0)
(0.0063563439 4.4020434e-05 0)
(0.0063156733 3.8982788e-05 0)
(0.0062792631 3.4269185e-05 0)
(0.0062468493 2.9867973e-05 0)
(0.006218177 2.5767234e-05 0)
(0.0061930003 2.1954871e-05 0)
(0.006171083 1.8418701e-05 0)
(0.0061521982 1.5146524e-05 0)
(0.0061361288 1.2126184e-05 0)
(0.0061226674 9.3456309e-06 0)
(0.0061116158 6.7929623e-06 0)
(0.0061027859 4.4564676e-06 0)
(0.0060959985 2.324663e-06 0)
(0.0060910838 3.8632345e-07 0)
(0.0060878811 -1.3694918e-06 0)
(0.0060862385 -2.9534275e-06 0)
(0.0060860124 -4.3757908e-06 0)
(0.0060870681 -5.6465581e-06 0)
(0.0060892785 -6.7753699e-06 0)
(0.0060925244 -7.7715132e-06 0)
(0.0060966944 -8.6439046e-06 0)
(0.006101684 -9.401089e-06 0)
(0.006107396 -1.0051247e-05 0)
(0.0061137394 -1.0602195e-05 0)
(0.0061206301 -1.1061391e-05 0)
(0.0061279898 -1.1435932e-05 0)
(0.006135746 -1.1732562e-05 0)
(0.0061438318 -1.1957677e-05 0)
(0.0061521856 -1.2117331e-05 0)
(0.0061607506 -1.2217246e-05 0)
(0.0061694749 -1.2262822e-05 0)
(0.0061783109 -1.2259143e-05 0)
(0.0061872152 -1.221099e-05 0)
(0.0061961486 -1.2122851e-05 0)
(0.0062050753 -1.199893e-05 0)
(0.0062139631 -1.184316e-05 0)
(0.0062227833 -1.1659216e-05 0)
(0.0062315098 -1.1450518e-05 0)
(0.0062401198 -1.1220253e-05 0)
(0.006248593 -1.0971377e-05 0)
(0.0062569117 -1.0706628e-05 0)
(0.0062650602 -1.0428542e-05 0)
(0.0062730252 -1.0139456e-05 0)
(0.0062807955 -9.841521e-06 0)
(0.0062883616 -9.5367136e-06 0)
(0.0062957155 -9.2268427e-06 0)
(0.006302851 -8.9135605e-06 0)
(0.0063097634 -8.598371e-06 0)
(0.0063164491 -8.2826392e-06 0)
(0.0063229057 -7.9675986e-06 0)
(0.0063291321 -7.6543595e-06 0)
(0.006335128 -7.3439167e-06 0)
(0.006340894 -7.0371569e-06 0)
(0.0063464315 -6.7348661e-06 0)
(0.0063517428 -6.4377368e-06 0)
(0.0063568306 -6.146374e-06 0)
(0.0063616982 -5.8613017e-06 0)
(0.0063663496 -5.5829681e-06 0)
(0.006370789 -5.3117514e-06 0)
(0.006375021 -5.0479654e-06 0)
(0.0063790507 -4.7918646e-06 0)
(0.0063828833 -4.5436496e-06 0)
(0.0063865243 -4.3034709e-06 0)
(0.0063899793 -4.0714334e-06 0)
(0.0063932541 -3.8476e-06 0)
(0.0063963547 -3.6319959e-06 0)
(0.0063992869 -3.4246122e-06 0)
(0.0064020567 -3.2254098e-06 0)
(0.0064046703 -3.0343223e-06 0)
(0.0064071336 -2.8512587e-06 0)
(0.0064094526 -2.6761056e-06 0)
(0.0064116332 -2.5087303e-06 0)
(0.0064136813 -2.3489832e-06 0)
(0.0064156026 -2.1967003e-06 0)
(0.0064174028 -2.0517058e-06 0)
(0.0064190875 -1.9138138e-06 0)
(0.0064206621 -1.78283e-06 0)
(0.0064221319 -1.6585524e-06 0)
(0.0064235021 -1.540773e-06 0)
(0.0064247777 -1.4292795e-06 0)
(0.0064259636 -1.3238571e-06 0)
(0.0064270644 -1.2242896e-06 0)
(0.0064280849 -1.1303605e-06 0)
(0.0064290293 -1.0418531e-06 0)
(0.0064299019 -9.5855103e-07 0)
(0.0064307069 -8.8023988e-07 0)
(0.0064314481 -8.0670794e-07 0)
(0.0064321294 -7.377468e-07 0)
(0.0064327543 -6.7315211e-07 0)
(0.0064333263 -6.1272335e-07 0)
(0.0064338487 -5.562644e-07 0)
(0.0064343248 -5.0358379e-07 0)
(0.0064347574 -4.5449512e-07 0)
(0.0064351495 -4.0881725e-07 0)
(0.0064355039 -3.6637454e-07 0)
(0.006435823 -3.2699732e-07 0)
(0.0064361095 -2.9052158e-07 0)
(0.0064363656 -2.5678886e-07 0)
(0.0064365935 -2.2564609e-07 0)
(0.0064367954 -1.9694601e-07 0)
(0.0064369732 -1.7054752e-07 0)
(0.0064371288 -1.4631589e-07 0)
(0.006437264 -1.2412244e-07 0)
(0.0064373805 -1.0384376e-07 0)
(0.0064374797 -8.5361631e-08 0)
(0.0064375632 -6.8563136e-08 0)
(0.0064376324 -5.33409e-08 0)
(0.0064376886 -3.9593086e-08 0)
(0.0064377329 -2.7223043e-08 0)
(0.0064377666 -1.6139182e-08 0)
(0.0064377906 -6.254485e-09 0)
(0.006437806 2.5131766e-09 0)
(0.0064378138 1.0241491e-08 0)
(0.0064378147 1.7003939e-08 0)
(0.0064378097 2.2869914e-08 0)
(0.0064377994 2.7904757e-08 0)
(0.0064377845 3.2170106e-08 0)
(0.0064377657 3.5723829e-08 0)
(0.0064377437 3.8620281e-08 0)
(0.0064377189 4.0910245e-08 0)
(0.0064376919 4.264107e-08 0)
(0.0064376632 4.3856982e-08 0)
(0.0064376331 4.4599691e-08 0)
(0.0064376022 4.4908196e-08 0)
(0.0064375708 4.4818827e-08 0)
(0.0064375392 4.4365317e-08 0)
(0.0064375077 4.3577585e-08 0)
(0.0064374767 4.248354e-08 0)
(0.0064374464 4.1107199e-08 0)
(0.0064374171 3.9470385e-08 0)
(0.006437389 3.7590248e-08 0)
(0.0064373623 3.547983e-08 0)
(0.0064373372 3.3144542e-08 0)
(0.006437314 3.0581761e-08 0)
(0.0064372927 2.77762e-08 0)
(0.0064372737 2.4698635e-08 0)
(0.0064372571 2.1304037e-08 0)
(0.0064372432 1.7537242e-08 0)
(0.0064372322 1.3352161e-08 0)
(0.0064372244 8.7628625e-09 0)
(0.0064372197 3.9527755e-09 0)
(0.0064372184 -5.8534413e-10 0)
(0.0064372202 -3.7904303e-09 0)
(0.00046108587 0.002309562 0)
(0.0025971226 -0.00049071517 0)
(0.0061663041 -0.003099432 0)
(0.0091334456 -0.0042535909 0)
(0.011268988 -0.0045044758 0)
(0.01287513 -0.0042586724 0)
(0.01413322 -0.003768157 0)
(0.015136149 -0.0031901486 0)
(0.015941528 -0.0026117832 0)
(0.016584167 -0.0020758053 0)
(0.017085569 -0.0016001089 0)
(0.017461359 -0.0011891322 0)
(0.017724773 -0.00084033953 0)
(0.017887972 -0.00054798437 0)
(0.017962487 -0.00030521804 0)
(0.017959301 -0.00010520071 0)
(0.017888791 5.8384421e-05 0)
(0.017760568 0.00019116447 0)
(0.017583474 0.0002979878 0)
(0.017365565 0.00038296791 0)
(0.017114108 0.00044956962 0)
(0.01683561 0.00050070439 0)
(0.016535857 0.00053881957 0)
(0.016219965 0.00056597689 0)
(0.015892433 0.00058391879 0)
(0.015557197 0.00059412313 0)
(0.015217682 0.0005978478 0)
(0.014876853 0.00059616694 0)
(0.014537258 0.00059000033 0)
(0.014201073 0.0005801373 0)
(0.013870141 0.00056725625 0)
(0.013546007 0.00055194082 0)
(0.013229952 0.00053469322 0)
(0.012923021 0.00051594543 0)
(0.012626052 0.00049606869 0)
(0.012339698 0.00047538145 0)
(0.012064451 0.00045415632 0)
(0.011800661 0.00043262587 0)
(0.011548554 0.00041098786 0)
(0.01130825 0.00038940959 0)
(0.011079775 0.0003680318 0)
(0.010863074 0.00034697208 0)
(0.010658026 0.0003263278 0)
(0.010464451 0.00030617872 0)
(0.010282121 0.00028658929 0)
(0.010110767 0.00026761066 0)
(0.0099500879 0.00024928244 0)
(0.0097997562 0.00023163424 0)
(0.0096594232 0.00021468705 0)
(0.0095287246 0.00019845446 0)
(0.009407285 0.00018294365 0)
(0.0092947211 0.00016815638 0)
(0.0091906458 0.00015408975 0)
(0.0090946704 0.00014073691 0)
(0.0090064076 0.00012808772 0)
(0.0089254732 0.00011612924 0)
(0.0088514883 0.00010484622 0)
(0.0087840804 9.4221522e-05 0)
(0.0087228852 8.4236458e-05 0)
(0.0086675471 7.4871124e-05 0)
(0.0086177207 6.6104661e-05 0)
(0.0085730707 5.7915498e-05 0)
(0.0085332733 5.0281558e-05 0)
(0.008498016 4.3180444e-05 0)
(0.0084669981 3.6589591e-05 0)
(0.0084399309 3.0486406e-05 0)
(0.008416538 2.4848393e-05 0)
(0.0083965547 1.9653247e-05 0)
(0.0083797288 1.4878955e-05 0)
(0.0083658199 1.0503863e-05 0)
(0.0083545993 6.5067509e-06 0)
(0.0083458503 2.8668847e-06 0)
(0.0083393672 -4.3592646e-07 0)
(0.0083349557 -3.4213061e-06 0)
(0.0083324322 -6.1082674e-06 0)
(0.0083316238 -8.5151878e-06 0)
(0.0083323675 -1.0659811e-05 0)
(0.0083345105 -1.2559208e-05 0)
(0.0083379093 -1.4229767e-05 0)
(0.0083424296 -1.5687199e-05 0)
(0.0083479458 -1.6946543e-05 0)
(0.0083543408 -1.8022157e-05 0)
(0.0083615058 -1.8927733e-05 0)
(0.0083693392 -1.9676295e-05 0)
(0.0083777472 -2.0280218e-05 0)
(0.0083866427 -2.0751232e-05 0)
(0.0083959454 -2.1100444e-05 0)
(0.0084055813 -2.1338351e-05 0)
(0.0084154821 -2.1474855e-05 0)
(0.0084255855 -2.1519287e-05 0)
(0.0084358344 -2.1480419e-05 0)
(0.0084461766 -2.1366491e-05 0)
(0.0084565649 -2.1185223e-05 0)
(0.0084669562 -2.0943843e-05 0)
(0.0084773119 -2.0649103e-05 0)
(0.0084875971 -2.03073e-05 0)
(0.0084977808 -1.9924294e-05 0)
(0.0085078351 -1.9505534e-05 0)
(0.0085177355 -1.9056071e-05 0)
(0.0085274606 -1.8580582e-05 0)
(0.0085369915 -1.8083386e-05 0)
(0.0085463119 -1.7568462e-05 0)
(0.0085554082 -1.703947e-05 0)
(0.0085642685 -1.6499765e-05 0)
(0.0085728834 -1.5952415e-05 0)
(0.0085812451 -1.5400219e-05 0)
(0.0085893474 -1.4845721e-05 0)
(0.0085971861 -1.4291224e-05 0)
(0.008604758 -1.3738805e-05 0)
(0.0086120614 -1.3190331e-05 0)
(0.0086190958 -1.2647471e-05 0)
(0.0086258617 -1.211171e-05 0)
(0.0086323606 -1.158436e-05 0)
(0.0086385947 -1.1066572e-05 0)
(0.0086445673 -1.0559349e-05 0)
(0.0086502821 -1.0063552e-05 0)
(0.0086557436 -9.579916e-06 0)
(0.0086609565 -9.1090564e-06 0)
(0.0086659264 -8.6514797e-06 0)
(0.0086706589 -8.2075913e-06 0)
(0.0086751601 -7.7777042e-06 0)
(0.0086794364 -7.3620461e-06 0)
(0.0086834944 -6.9607677e-06 0)
(0.0086873407 -6.5739498e-06 0)
(0.0086909824 -6.20161e-06 0)
(0.0086944263 -5.8437085e-06 0)
(0.0086976795 -5.5001541e-06 0)
(0.008700749 -5.1708082e-06 0)
(0.0087036418 -4.8554919e-06 0)
(0.008706365 -4.5539892e-06 0)
(0.0087089255 -4.266053e-06 0)
(0.0087113301 -3.991409e-06 0)
(0.0087135857 -3.7297597e-06 0)
(0.0087156989 -3.4807871e-06 0)
(0.0087176762 -3.2441558e-06 0)
(0.008719524 -3.0195158e-06 0)
(0.0087212485 -2.8065062e-06 0)
(0.0087228558 -2.6047577e-06 0)
(0.0087243519 -2.4138955e-06 0)
(0.0087257424 -2.2335405e-06 0)
(0.0087270329 -2.0633113e-06 0)
(0.0087282288 -1.902825e-06 0)
(0.0087293352 -1.7517001e-06 0)
(0.0087303572 -1.609558e-06 0)
(0.0087312996 -1.4760243e-06 0)
(0.0087321671 -1.3507297e-06 0)
(0.008732964 -1.2333105e-06 0)
(0.0087336946 -1.1234101e-06 0)
(0.008734363 -1.0206787e-06 0)
(0.0087349731 -9.2477521e-07 0)
(0.0087355287 -8.3536674e-07 0)
(0.0087360333 -7.5212992e-07 0)
(0.0087364902 -6.7475133e-07 0)
(0.0087369028 -6.0292669e-07 0)
(0.0087372741 -5.3636196e-07 0)
(0.0087376069 -4.7477224e-07 0)
(0.0087379042 -4.1788341e-07 0)
(0.0087381683 -3.6543185e-07 0)
(0.008738402 -3.1716532e-07 0)
(0.0087386074 -2.728414e-07 0)
(0.0087387869 -2.3222789e-07 0)
(0.0087389424 -1.9510173e-07 0)
(0.008739076 -1.6125008e-07 0)
(0.0087391896 -1.3046992e-07 0)
(0.0087392848 -1.0256819e-07 0)
(0.0087393632 -7.7361272e-08 0)
(0.0087394266 -5.4674677e-08 0)
(0.0087394762 -3.4342561e-08 0)
(0.0087395134 -1.6208256e-08 0)
(0.0087395396 -1.2273924e-10 0)
(0.0087395558 1.4054564e-08 0)
(0.0087395632 2.6457182e-08 0)
(0.0087395629 3.7210663e-08 0)
(0.0087395557 4.6433749e-08 0)
(0.0087395426 5.4237734e-08 0)
(0.0087395244 6.0727738e-08 0)
(0.0087395019 6.6001837e-08 0)
(0.0087394758 7.0152417e-08 0)
(0.0087394467 7.3265642e-08 0)
(0.0087394154 7.542297e-08 0)
(0.0087393823 7.6699896e-08 0)
(0.0087393481 7.7167528e-08 0)
(0.0087393131 7.6890924e-08 0)
(0.0087392778 7.5929923e-08 0)
(0.0087392427 7.4339457e-08 0)
(0.0087392082 7.2168289e-08 0)
(0.0087391745 6.9460555e-08 0)
(0.0087391421 6.6252202e-08 0)
(0.0087391112 6.2572213e-08 0)
(0.0087390821 5.8437184e-08 0)
(0.0087390552 5.3851784e-08 0)
(0.0087390306 4.8801866e-08 0)
(0.0087390086 4.3255463e-08 0)
(0.0087389895 3.7160897e-08 0)
(0.0087389736 3.0461031e-08 0)
(0.008738961 2.3125258e-08 0)
(0.008738952 1.5229497e-08 0)
(0.0087389466 7.1190572e-09 0)
(0.0087389448 -3.276914e-10 0)
(0.0087389467 -5.3622455e-09 0)
(0.0094069764 -0.0043395756 0)
(0.013947498 -0.0068173318 0)
(0.017718012 -0.0071334409 0)
(0.019947625 -0.0067673215 0)
(0.021032688 -0.0061222698 0)
(0.021631367 -0.0053594125 0)
(0.022027997 -0.0045708477 0)
(0.022321925 -0.0038080688 0)
(0.022554102 -0.0030987441 0)
(0.02273791 -0.0024568756 0)
(0.022873799 -0.0018877029 0)
(0.022958633 -0.0013907254 0)
(0.022989632 -0.00096198534 0)
(0.022965617 -0.00059572191 0)
(0.022887239 -0.00028547397 0)
(0.022756793 -2.4745306e-05 0)
(0.022577753 0.00019267061 0)
(0.022354372 0.00037246587 0)
(0.022091448 0.00051969473 0)
(0.021794011 0.00063879967 0)
(0.021467112 0.00073366042 0)
(0.021115673 0.00080765139 0)
(0.02074438 0.00086370229 0)
(0.020357623 0.00090435655 0)
(0.019959453 0.00093182439 0)
(0.019553567 0.00094802911 0)
(0.019143306 0.00095464691 0)
(0.018731657 0.00095314063 0)
(0.018321269 0.00094478829 0)
(0.01791447 0.00093070724 0)
(0.017513285 0.0009118746 0)
(0.017119458 0.00088914465 0)
(0.016734473 0.00086326379 0)
(0.016359575 0.00083488338 0)
(0.015995793 0.00080457092 0)
(0.015643958 0.00077281976 0)
(0.015304721 0.00074005762 0)
(0.014978576 0.00070665415 0)
(0.014665875 0.00067292758 0)
(0.01436684 0.00063915057 0)
(0.014081584 0.00060555551 0)
(0.013810123 0.00057233918 0)
(0.013552385 0.00053966691 0)
(0.013308227 0.00050767629 0)
(0.013077439 0.00047648055 0)
(0.012859763 0.00044617144 0)
(0.01265489 0.00041682196 0)
(0.012462479 0.00038848864 0)
(0.012282155 0.0003612137 0)
(0.01211352 0.00033502689 0)
(0.011956159 0.00030994713 0)
(0.011809642 0.00028598402 0)
(0.011673529 0.0002631391 0)
(0.011547376 0.00024140705 0)
(0.011430737 0.00022077665 0)
(0.011323166 0.00020123172 0)
(0.011224219 0.00018275192 0)
(0.011133459 0.00016531338 0)
(0.011050456 0.00014888941 0)
(0.010974789 0.00013345095 0)
(0.010906046 0.0001189671 0)
(0.010843826 0.00010540552 0)
(0.010787741 9.2732794e-05 0)
(0.010737414 8.0914732e-05 0)
(0.010692483 6.9916683e-05 0)
(0.010652598 5.9703757e-05 0)
(0.010617423 5.0241046e-05 0)
(0.010586636 4.1493807e-05 0)
(0.010559929 3.3427623e-05 0)
(0.010537008 2.6008545e-05 0)
(0.010517592 1.9203207e-05 0)
(0.010501415 1.2978931e-05 0)
(0.010488222 7.3038074e-06 0)
(0.010477774 2.1467734e-06 0)
(0.010469843 -2.5223221e-06 0)
(0.010464214 -6.7326726e-06 0)
(0.010460684 -1.0512432e-05 0)
(0.010459062 -1.3888774e-05 0)
(0.010459168 -1.6887867e-05 0)
(0.010460834 -1.9534835e-05 0)
(0.0104639 -2.1853744e-05 0)
(0.010468219 -2.386761e-05 0)
(0.010473652 -2.55984e-05 0)
(0.010480071 -2.7067045e-05 0)
(0.010487355 -2.8293457e-05 0)
(0.010495393 -2.9296544e-05 0)
(0.01050408 -3.0094235e-05 0)
(0.010513322 -3.07035e-05 0)
(0.010523029 -3.1140375e-05 0)
(0.010533119 -3.1419997e-05 0)
(0.010543518 -3.1556622e-05 0)
(0.010554157 -3.1563664e-05 0)
(0.010564972 -3.1453719e-05 0)
(0.010575906 -3.1238602e-05 0)
(0.010586906 -3.0929371e-05 0)
(0.010597925 -3.0536365e-05 0)
(0.010608921 -3.0069228e-05 0)
(0.010619854 -2.9536949e-05 0)
(0.01063069 -2.8947882e-05 0)
(0.010641398 -2.8309785e-05 0)
(0.010651951 -2.762984e-05 0)
(0.010662324 -2.691469e-05 0)
(0.010672497 -2.6170462e-05 0)
(0.010682451 -2.5402793e-05 0)
(0.010692172 -2.461686e-05 0)
(0.010701644 -2.3817405e-05 0)
(0.010710859 -2.3008754e-05 0)
(0.010719807 -2.2194847e-05 0)
(0.01072848 -2.1379258e-05 0)
(0.010736874 -2.0565218e-05 0)
(0.010744985 -1.9755635e-05 0)
(0.01075281 -1.8953116e-05 0)
(0.01076035 -1.8159984e-05 0)
(0.010767603 -1.7378301e-05 0)
(0.010774571 -1.660988e-05 0)
(0.010781257 -1.5856306e-05 0)
(0.010787663 -1.511895e-05 0)
(0.010793794 -1.4398989e-05 0)
(0.010799654 -1.3697415e-05 0)
(0.010805248 -1.3015052e-05 0)
(0.010810581 -1.235257e-05 0)
(0.010815661 -1.1710495e-05 0)
(0.010820492 -1.1089221e-05 0)
(0.010825082 -1.0489027e-05 0)
(0.010829438 -9.9100809e-06 0)
(0.010833567 -9.3524522e-06 0)
(0.010837476 -8.8161217e-06 0)
(0.010841173 -8.3009893e-06 0)
(0.010844665 -7.8068828e-06 0)
(0.01084796 -7.3335658e-06 0)
(0.010851065 -6.8807459e-06 0)
(0.010853988 -6.448081e-06 0)
(0.010856735 -6.035186e-06 0)
(0.010859316 -5.6416374e-06 0)
(0.010861736 -5.2669789e-06 0)