/*--------------------------------*- C++ -*----------------------------------*\
| =========                 |                                                 |
| \\      /  F ield         | OpenFOAM: The Open Source CFD Toolbox           |
|  \\    /   O peration     | Version:  2406                                  |
|   \\  /    A nd           | Website:  www.openfoam.com                      |
|    \\/     M anipulation  |                                                 |
\*---------------------------------------------------------------------------*/
FoamFile
{
    version     2.0;
    format      ascii;
    arch        "LSB;label=32;scalar=64";
    class       volScalarField;
    location    "1437";
    object      T;
}
// * * * * * * * * * * * * * * * * * * * * * * * * * * * * * * * * * * * * * //

dimensions      [0 0 0 0 0 0 0];

internalField   nonuniform List<scalar> 
9800
(
1
1
1
1
1
1
1
1
1
1
1
1
1
1
1
1
1
1
1
1
1
1
1
1
1
1
1
1
1
1
1
1
1
1
1
1
1
1
1
1
1
1
1
1
1
1
1
1
1
1
1
1
1
1
1
1
1
1
1
1
1
1
1
1
1
1
1
1
1
1
1
1
1
1
1
1
1
1
1
1
1
1
1
1
1
1
1
1
1
1
1
1
1
1
1
1
1
1
1
1
1
1
1
1
1
1
1
1
1
1
1
1
1
1
1
1
1
1
1
1
1
1
1
1
1
1
1
1
1
1
1
1
1
1
1
1
1
1
1
1
1
1
1
1
1
1
1
1
1
1
1
1
1
1
1
1
1
1
1
1
1
1
1
1
1
1
1
1
1
1
1
1
1
1
1
1
1
1
1
1
1
1
1
1
1
1
1
1
1
1
1
1
1
1
1
1
1
1
1
1
1
1
1
1
1
1
1
1
1
1
1
1
1
1
1
1
1
1
1
1
1
1
1
1
1
1
1
1
1
1
1
1
1
1
1
1
1
1
1
1
1
1
1
1
1
1
1
1
1
1
1
1
1
1
1
1
1
1
1
1
1
1
1
1
1
1
1
1
1
1
1
1
1
1
1
1
1
1
1
1
1
1
1
1
1
1
1
1
1
1
1
1
1
1
1
1
1
1
1
1
1
1
1
1
1
1
1
1
1
1
1
1
1
1
1
1
1
1
1
1
1
1
1
1
1
1
1
1
1
1
1
1
1
1
1
1
1
1
1
1
1
1
1
1
1
1
1
1
1
1
1
1
1
1
1
1
1
1
1
1
1
1
1
1
1
1
1
1
1
1
1
1
1
1
1
1
1
1
1
1
1
1
1
1
1
1
1
1
1
1
1
1
1
1
1
1
1
1
1
1
1
1
1
1
1
1
1
1
1
1
1
1
1
1
1
1
1
1
1
1
1
1
1
1
1
1
1
1
1
1
1
1
1
1
1
1
1
1
1
1
1
1
1
1
1
1
1
1
1
1
1
1
1
1
1
1
1
1
1
1
1
1
1
1
1
1
1
1
1
1
1
1
1
1
1
1
1
1
1
1
1
1
1
1
1
1
1
1
1
1
1
1
1
1
1
1
1
1
1
1
1
1
1
1
1
1
1
1
1
1
1
1
1
1
1
1
1
1
1
1
1
1
1
1
1
1
1
1
1
1
1
1
1
1
1
1
1
1
1
1
1
1
1
1
1
1
1
1
1
1
1
1
1
1
1
1
1
1
1
1
1
1
1
1
1
1
1
1
1
1
1
1
1
1
1
1
1
1
1
1
1
1
1
1
1
1
1
1
1
1
1
1
1
1
1
1
1
1
1
1
1
1
1
1
1
1
1
1
1
1
1
1
1
1
1
1
1
1
1
1
1
1
1
1
1
1
1
1
1
1
1
1
1
1
1
1
1
1
1
1
1
1
1
1
1
1
1
1
1
1
1
1
1
1
1
1
1
1
1
1
1
1
1
1
1
1
1
1
1
1
1
1
1
1
1
1
1
1
1
1
1
1
1
1
1
1
1
1
1
1
1
1
1
1
1
1
1
1
1
1
1
1
1
1
1
1
1
1
1
1
1
1
1
1
1
1
1
1
1
1
1
1
1
1
1
1
1
1
1
1
1
1
1
1
1
1
1
1
1
1
1
1
1
1
1
1
1
1
1
1
1
1
1
1
1
1
1
1
1
1
1
1
1
1
1
1
1
1
1
1
1
1
1
1
1
1
1
1
1
1
1
1
1
1
1
1
1
1
1
1
1
1
1
1
1
1
1
1
1
1
1
1
1
1
1
1
1
1
1
1
1
1
1
1
1
1
1
1
1
1
1
1
1
1
1
1
1
1
1
1
1
1
1
1
1
1
1
1
1
1
1
1
1
1
1
1
1
1
1
1
1
1
1
1
1
1
1
1
1
1
1
1
1
1
1
1
1
1
1
1
1
1
1
1
1
1
1
1
1
1
1
1
1
1
1
1
1
1
1
1
1
1
1
1
1
1
1
1
1
1
1
1
1
1
1
1
1
1
1
1
1
1
1
1
1
1
1
1
1
1
1
1
1
1
1
1
1
1
1
1
1
1
1
1
1
1
1
1
1
1
1
1
1
1
1
1
1
1
1
1
1
1
1
1
1
1
1
1
1
1
1
1
1
1
1
1
1
1
1
1
1
1
1
1
1
1
1
1
1
1
1
1
1
1
1
1
1
1
1
1
1
1
1
1
1
1
1
1
1
1
1
1
1
1
1
1
1
1
1
1
1
1
1
1
1
1
1
1
1
1
1
1
1
1
1
1
1
1
1
1
1
1
1
1
1
1
1
1
1
1
1
1
1
1
1
1
1
1
1
1
1
1
1
1
1
1
1
1
1
1
1
1
1
1
1
1
1
1
1
1
1
1
1
1
1
1
1
1
1
1
1
1
1
1
1
1
1
1
1
1
1
1
1
1
1
1
1
1
1
1
1
1
1
1
1
1
1
1
1
1
1
1
1
1
1
1
1
1
1
1
1
1
1
1
1
1
1
1
1
1
1
1
1
1
1
1
1
1
1
1
1
1
1
1
1
1
1
1
1
1
1
1
1
1
1
1
1
1
1
1
1
1
1
1
1
1
1
1
1
1
1
1
1
1
1
1
1
1
1
1
1
1
1
1
1
1
1
1
1
1
1
1
1
1
1
1
1
1
1
1
1
1
1
1
1
1
1
1
1
1
1
1
1
1
1
1
1
1
1
1
1
1
1
1
1
1
1
1
1
1
1
1
1
1
1
1
1
1
1
1
1
1
1
1
1
1
1
1
1
1
1
1
1
1
1
1
1
1
1
1
1
1
1
1
1
1
1
1
1
1
1
1
1
1
1
1
1
1
1
1
1
1
1
1
1
1
1
1
1
1
1
1
1
1
1
1
1
1
1
1
1
1
1
1
1
1
1
1
1
1
1
1
1
1
1
1
1
1
1
1
1
1
1
1
1
1
1
1
1
1
1
1
1
1
1
1
1
1
1
1
1
1
1
1
1
1
1
1
1
1
1
1
1
1
1
1
1
1
1
1
1
1
1
1
1
1
1
1
1
1
1
1
1
1
1
1
1
1
1
1
1
1
1
1
1
1
1
1
1
1
1
1
1
1
1
1
1
1
1
1
1
1
1
1
1
1
1
1
1
1
1
1
1
1
1
1
1
1
1
1
1
1
1
1
1
1
1
1
1
1
1
1
1
1
1
1
1
1
1
1
1
1
1
1
1
1
1
1
1
1
1
1
1
1
1
1
1
1
1
1
1
1
1
1
1
1
1
1
1
1
1
1
1
1
1
1
1
1
1
1
1
1
1
1
1
1
1
1
1
1
1
1
1
1
1
1
1
1
1
1
1
1
1
1
1
1
1
1
1
1
1
1
1
1
1
1
1
1
1
1
1
1
1
1
1
1
1
1
1
1
1
1
1
1
1
1
1
1
1
1
1
1
1
1
1
1
1
1
1
1
1
1
1
1
1
1
1
1
1
1
1
1
1
1
1
1
1
1
1
1
1
1
1
1
1
1
1
1
1
1
1
1
1
1
1
1
1
1
1
1
1
1
1
1
1
1
1
1
1
1
1
1
1
1
1
1
1
1
1
1
1
1
1
1
1
1
1
1
1
1
1
1
1
1
1
1
1
1
1
1
1
1
1
1
1
1
1
1
1
1
1
1
1
1
1
1
1
1
1
1
1
1
1
1
1
1
1
1
1
1
1
1
1
1
1
1
1
1
1
1
1
1
1
1
1
1
1
1
1
1
1
1
1
1
1
1
1
1
1
1
1
1
1
1
1
1
1
1
1
1
1
1
1
1
1
1
1
1
1
1
1
1
1
1
1
1
1
1
1
1
1
1
1
1
1
1
1
1
1
1
1
1
1
1
1
1
1
1
1
1
1
1
1
1
1
1
1
1
1
1
1
1
1
1
1
1
1
1
1
1
1
1
1
1
1
1
1
1
1
1
1
1
1
1
1
1
1
1
1
1
1
1
1
1
1
1
1
1
1
1
1
1
1
1
1
1
1
1
1
1
1
1
1
1
1
1
1
1
1
1
1
1
1
1
1
1
1
1
1
1
1
1
1
1
1
1
1
1
1
1
1
1
1
1
1
1
1
1
1
1
1
1
1
1
1
1
1
1
1
1
1
1
1
1
1
1
1
1
1
1
1
1
1
1
1
1
1
1
1
1
1
1
1
1
1
1
1
1
1
1
1
1
1
1
1
1
1
1
1
1
1
1
1
1
1
1
1
1
1
1
1
1
1
1
1
1
1
1
1
1
1
1
1
1
1
1
1
1
1
1
1
1
1
1
1
1
1
1
1
1
1
1
1
1
1
1
1
1
1
1
1
1
1
1
1
1
1
1
1
1
1
1
1
1
1
1
1
1
1
1
1
1
1
1
1
1
1
1
1
1
1
1
1
1
1
1
1
1
1
1
1
1
1
1
1
1
1
1
1
1
1
1
1
1
1
1
1
1
1
1
1
1
1
1
1
1
1
1
1
1
1
1
1
1
1
1
1
1
1
1
1
1
1
1
1
1
1
1
1
1
1
1
1
1
1
1
1
1
1
1
1
1
1
1
1
1
1
1
1
1
1
1
1
1
1
1
1
1
1
1
1
1
1
1
1
1
1
1
1
1
1
1
1
1
1
1
1
1
1
1
1
1
1
1
1
1
1
1
1
1
1
1
1
1
1
1
1
1
1
1
1
1
1
1
1
1
1
1
1
1
1
1
1
1
1
1
1
1
1
1
1
1
1
1
1
1
1
1
1
1
1
1
1
1
1
1
1
1
1
1
1
1
1
1
1
1
1
1
1
1
1
1
1
1
1
1
1
1
1
1
1
1
1
1
1
1
1
1
1
1
1
1
1
1
1
1
1
1
1
1
1
1
1
1
1
1
1
1
1
1
1
1
1
1
1
1
1
1
1
1
1
1
1
1
1
1
1
1
1
1
1
1
1
1
1
1
1
1
1
1
1
1
1
1
1
1
1
1
1
1
1
1
1
1
1
1
1
1
1
1
1
1
1
1
1
1
1
1
1
1
1
1
1
1
1
1
1
1
1
1
1
1
1
1
1
1
1
1
1
1
1
1
1
1
1
1
1
1
1
1
1
1
1
1
1
1
1
1
1
1
1
1
1
1
1
1
1
1
1
1
1
1
1
1
1
1
1
1
1
1
1
1
1
1
1
1
1
1
1
1
1
1
1
1
1
1
1
1
1
1
1
1
1
1
1
1
1
1
1
1
1
1
1
1
1
1
1
1
1
1
1
1
1
1
1
1
1
1
1
1
1
1
1
1
1
1
1
1
1
1
1
1
1
1
1
1
1
1
1
1
1
1
1
1
1
1
1
1
1
1
1
1
1
1
1
1
1
1
1
1
1
1
1
1
1
1
1
1
1
1
1
1
1
1
1
1
1
1
1
1
1
1
1
1
1
1
1
1
1
1
1
1
1
1
1
1
1
1
1
1
1
1
1
1
1
1
1
1
1
1
1
1
1
1
1
1
1
1
1
1
1
1
1
1
1
1
1
1
1
1
1
1
1
1
1
1
1
1
1
1
1
1
1
1
1
1
1
1
1
1
1
1
1
1
1
1
1
1
1
1
1
1
1
1
1
1
1
1
1
1
1
1
1
1
1
1
1
1
1
1
1
1
1
1
1
1
1
1
1
1
1
1
1
1
1
1
1
1
1
1
1
1
1
1
1
1
1
1
1
1
1
1
1
1
1
1
1
1
1
1
1
1
1
1
1
1
1
1
1
1
1
1
1
1
1
1
1
1
1
1
1
1
1
1
1
1
1
1
1
1
1
1
1
1
1
1
1
1
1
1
1
1
1
1
1
1
1
1
1
1
1
1
1
1
1
1
1
1
1
1
1
1
1
1
1
1
1
1
1
1
1
1
1
1
1
1
1
1
1
1
1
1
1
1
1
1
1
1
1
1
1
1
1
1
1
1
1
1
1
1
1
1
1
1
1
1
1
1
1
1
1
1
1
1
1
1
1
1
1
1
1
1
1
1
1
1
1
1
1
1
1
1
1
1
1
1
1
1
1
1
1
1
1
1
1
1
1
1
1
1
1
1
1
1
1
1
1
1
1
1
1
1
1
1
1
1
1
1
1
1
1
1
1
1
1
1
1
1
1
1
1
1
1
1
1
1
1
1
1
1
1
1
1
1
1
1
1
1
1
1
1
1
1
1
1
1
1
1
1
1
1
1
1
1
1
1
1
1
1
1
1
1
1
1
1
1
1
1
1
1
1
1
1
1
1
1
1
1
1
1
1
1
1
1
1
1
1
1
1
1
1
1
1
1
1
1
1
1
1
1
1
1
1
1
1
1
1
1
1
1
1
1
1
1
1
1
1
1
1
1
1
1
1
1
1
1
1
1
1
1
1
1
1
1
1
1
1
1
1
1
1
1
1
1
1
1
1
1
1
1
1
1
1
1
1
1
1
1
1
1
1
1
1
1
1
1
1
1
1
1
1
1
1
1
1
1
1
1
1
1
1
1
1
1
1
1
1
1
1
1
1
1
1
1
1
1
1
1
1
1
1
1
1
1
1
1
1
1
1
1
1
1
1
1
1
1
1
1
1
1
1
1
1
1
1
1
1
1
1
1
1
1
1
1
1
1
1
1
1
1
1
1
1
1
1
1
1
1
1
1
1
1
1
1
1
1
1
1
1
1
1
1
1
1
1
1
1
1
1
1
1
1
1
1
1
1
1
1
1
1
1
1
1
1
1
1
1
1
1
1
1
1
1
1
1
1
1
1
1
1
1
1
1
1
1
1
1
1
1
1
1
1
1
1
1
1
1
1
1
1
1
1
1
1
1
1
1
1
1
1
1
1
1
1
1
1
1
1
1
1
1
1
1
1
1
1
1
1
1
1
1
1
1
1
1
1
1
1
1
1
1
1
1
1
1
1
1
1
1
1
1
1
1
1
1
1
1
1
1
1
1
1
1
1
1
1
1
1
1
1
1
1
1
1
1
1
1
1
1
1
1
1
1
1
1
1
1
1
1
1
1
1
1
1
1
1
1
1
1
1
1
1
1
1
1
1
1
1
1
1
1
1
1
1
1
1
1
1
1
1
1
1
1
1
1
1
1
1
1
1
1
1
1
1
1
1
1
1
1
1
1
1
1
1
1
1
1
1
1
1
1
1
1
1
1
1
1
1
1
1
1
1
1
1
1
1
0.99999999
0.99999999
0.99999999
0.99999999
0.99999999
0.99999999
0.99999999
0.99999999
0.99999999
0.99999999
0.99999999
0.99999999
0.99999999
0.99999999
0.99999999
0.99999999
0.99999999
0.99999999
0.99999999
0.99999999
0.99999999
0.99999999
0.99999999
0.99999999
0.99999999
1
1
1
1
1
1
1
1
1
1
1
1
1
1
1
1
1
1
1
1
1
1
1
1
1
1
1
1
1
1
1
1
1
1
1
1
1
1
1
1
1
1
1
1
1
1
1
1
1
1
1
1
1
1
1
1
1
1
1
1
1
1
1
1
1
1
1
1
1
1
1
1
1
1
1
1
1
1
1
1
1
1
1
1
1
1
1
1
1
1
1
1
1
1
1
1
1
1
1
1
1
1
1
1
1
1
1
1
1
1
0.99999999
0.99999999
0.99999999
0.99999999
0.99999999
0.99999999
0.99999999
0.99999999
0.99999999
0.99999999
0.99999999
0.99999999
0.99999999
0.99999999
0.99999999
0.99999999
0.99999999
0.99999999
0.99999998
0.99999998
0.99999998
0.99999998
0.99999998
0.99999998
0.99999998
0.99999998
0.99999998
0.99999998
0.99999998
0.99999998
0.99999998
0.99999998
0.99999998
0.99999998
0.99999998
0.99999998
0.99999998
0.99999997
0.99999997
0.99999997
0.99999997
0.99999997
0.99999997
0.99999997
0.99999997
0.99999997
0.99999997
0.99999997
0.99999997
0.99999997
0.99999997
0.99999997
0.99999997
0.99999997
0.99999997
0.99999997
0.99999997
0.99999997
0.99999997
0.9999924
0.99998847
0.99998627
0.99998508
0.99998449
0.99998424
0.9999842
0.99998429
0.99998449
0.99998475
0.99998509
0.99998548
0.99998593
0.99998643
0.99998698
0.99998758
0.99998822
0.99998889
0.99998959
0.9999903
0.99999102
0.99999173
0.99999244
0.99999312
0.99999377
0.9999944
0.99999499
0.99999553
0.99999604
0.9999965
0.99999693
0.99999731
0.99999765
0.99999795
0.99999822
0.99999846
0.99999867
0.99999885
0.99999901
0.99999915
0.99999927
0.99999937
0.99999946
0.99999954
0.9999996
0.99999966
0.9999997
0.99999975
0.99999978
0.99999981
0.99999984
0.99999986
0.99999988
0.99999989
0.99999991
0.99999992
0.99999993
0.99999994
0.99999994
0.99999995
0.99999996
0.99999996
0.99999997
0.99999997
0.99999997
0.99999997
0.99999998
0.99999998
0.99999998
0.99999998
0.99999998
0.99999999
0.99999999
0.99999999
0.99999999
0.99999999
0.99999999
0.99999999
0.99999999
0.99999999
0.99999999
0.99999999
0.99999999
0.99999999
0.99999999
0.99999999
0.99999999
0.99999999
0.99999999
0.99999999
0.99999999
0.99999999
0.99999999
0.99999999
0.99999999
0.99999999
0.99999999
0.99999999
0.99999999
0.99999999
0.99999999
0.99999999
0.99999999
0.99999999
0.99999999
0.99999999
0.99999999
0.99999999
0.99999999
0.99999999
0.99999999
0.99999999
0.99999999
0.99999999
0.99999999
0.99999999
0.99999999
0.99999999
0.99999999
0.99999999
0.99999999
0.99999999
0.99999999
0.99999998
0.99999998
0.99999998
0.99999998
0.99999998
0.99999997
0.99999997
0.99999997
0.99999996
0.99999996
0.99999996
0.99999995
0.99999995
0.99999995
0.99999994
0.99999994
0.99999993
0.99999993
0.99999992
0.99999992
0.99999991
0.99999991
0.99999991
0.9999999
0.9999999
0.99999989
0.99999989
0.99999988
0.99999988
0.99999987
0.99999987
0.99999986
0.99999986
0.99999985
0.99999985
0.99999984
0.99999984
0.99999983
0.99999983
0.99999982
0.99999982
0.99999981
0.99999981
0.9999998
0.9999998
0.9999998
0.99999979
0.99999979
0.99999979
0.99999978
0.99999978
0.99999977
0.99999977
0.99999977
0.99999977
0.99999976
0.99999976
0.99999976
0.99999975
0.99999975
0.99999975
0.99999975
0.99999974
0.99999974
0.99999974
0.99999974
0.99999974
0.99999973
0.99999973
0.99999973
0.99999973
0.99999973
0.99999972
0.99999972
0.99999972
0.99999972
0.99999972
0.86331075
0.92639111
0.94897964
0.96123224
0.96898437
0.97434745
0.97829561
0.98133569
0.98375829
0.98574328
0.98740809
0.98883214
0.99007051
0.99116198
0.99213416
0.99300679
0.99379415
0.99450661
0.99515186
0.9957358
0.99626312
0.99673782
0.99716343
0.99754332
0.99788071
0.99817883
0.99844086
0.99866997
0.99886925
0.99904174
0.99919031
0.99931769
0.99942643
0.9995189
0.99959723
0.99966335
0.999719
0.9997657
0.99980479
0.99983745
0.99986468
0.99988734
0.99990618
0.99992183
0.99993482
0.99994559
0.99995453
0.99996194
0.99996809
0.9999732
0.99997744
0.99998096
0.9999839
0.99998635
0.99998839
0.9999901
0.99999153
0.99999273
0.99999374
0.99999459
0.99999531
0.99999592
0.99999643
0.99999687
0.99999725
0.99999757
0.99999784
0.99999808
0.99999828
0.99999846
0.99999861
0.99999874
0.99999886
0.99999896
0.99999905
0.99999912
0.99999919
0.99999925
0.99999931
0.99999935
0.99999939
0.99999943
0.99999946
0.99999949
0.99999952
0.99999954
0.99999956
0.99999958
0.9999996
0.99999961
0.99999963
0.99999964
0.99999965
0.99999966
0.99999967
0.99999968
0.99999968
0.99999969
0.99999969
0.9999997
0.9999997
0.99999971
0.99999971
0.99999971
0.99999972
0.99999972
0.99999972
0.99999972
0.99999972
0.99999972
0.99999972
0.99999972
0.99999972
0.99999972
0.99999972
0.99999972
0.99999971
0.99999971
0.9999997
0.99999969
0.99999968
0.99999967
0.99999965
0.99999964
0.99999962
0.99999961
0.99999959
0.99999957
0.99999955
0.99999953
0.99999951
0.99999948
0.99999946
0.99999944
0.99999941
0.99999938
0.99999936
0.99999933
0.9999993
0.99999927
0.99999925
0.99999922
0.99999919
0.99999916
0.99999913
0.9999991
0.99999907
0.99999904
0.99999901
0.99999898
0.99999895
0.99999892
0.99999889
0.99999886
0.99999883
0.9999988
0.99999878
0.99999875
0.99999872
0.99999869
0.99999867
0.99999864
0.99999862
0.99999859
0.99999857
0.99999855
0.99999852
0.9999985
0.99999848
0.99999846
0.99999844
0.99999842
0.9999984
0.99999838
0.99999836
0.99999835
0.99999833
0.99999831
0.9999983
0.99999828
0.99999827
0.99999826
0.99999824
0.99999823
0.99999822
0.9999982
0.99999819
0.99999818
0.99999817
0.99999816
0.99999815
0.99999814
0.99999813
0.99999812
0.99999811
0.9999981
0.99999809
0.99999809
0.99999808
0.99999807
0.0013046729
0.39860872
0.62578904
0.72944042
0.78938317
0.82861472
0.8563783
0.87715314
0.89337199
0.90646835
0.91733969
0.92657305
0.93456457
0.94158749
0.94783316
0.95343706
0.95849607
0.96308026
0.96724123
0.97101805
0.97444148
0.977537
0.98032687
0.98283155
0.98507059
0.98706306
0.98882782
0.99038349
0.99174842
0.99294049
0.99397697
0.99487433
0.9956481
0.99631276
0.99688166
0.997367
0.99777979
0.99812993
0.99842617
0.99867627
0.99888702
0.9990643
0.99921323
0.99933821
0.99944298
0.99953078
0.99960432
0.9996659
0.99971748
0.9997607
0.99979692
0.99982731
0.99985282
0.99987426
0.9998923
0.99990751
0.99992034
0.99993119
0.99994038
0.99994818
0.99995481
0.99996045
0.99996528
0.9999694
0.99997294
0.99997599
0.99997861
0.99998088
0.99998284
0.99998455
0.99998603
0.99998732
0.99998845
0.99998944
0.99999031
0.99999108
0.99999176
0.99999236
0.99999289
0.99999336
0.99999378
0.99999415
0.99999448
0.99999478
0.99999505
0.99999528
0.9999955
0.99999569
0.99999586
0.99999602
0.99999616
0.99999628
0.9999964
0.9999965
0.99999659
0.99999667
0.99999674
0.99999681
0.99999687
0.99999692
0.99999696
0.999997
0.99999704
0.99999707
0.9999971
0.99999712
0.99999714
0.99999715
0.99999716
0.99999717
0.99999718
0.99999718
0.99999719
0.99999719
0.99999718
0.99999718
0.99999716
0.99999713
0.9999971
0.99999706
0.99999701
0.99999695
0.99999688
0.99999681
0.99999674
0.99999666
0.99999657
0.99999648
0.99999638
0.99999628
0.99999618
0.99999607
0.99999596
0.99999584
0.99999573
0.99999561
0.99999549
0.99999536
0.99999524
0.99999511
0.99999498
0.99999485
0.99999472
0.99999459
0.99999446
0.99999433
0.9999942
0.99999407
0.99999394
0.99999381
0.99999369
0.99999356
0.99999344
0.99999332
0.9999932
0.99999308
0.99999296
0.99999285
0.99999274
0.99999263
0.99999252
0.99999241
0.99999231
0.99999221
0.99999212
0.99999202
0.99999193
0.99999184
0.99999176
0.99999167
0.99999159
0.99999151
0.99999144
0.99999136
0.99999129
0.99999123
0.99999116
0.9999911
0.99999104
0.99999098
0.99999092
0.99999087
0.99999081
0.99999076
0.99999071
0.99999067
0.99999062
0.99999058
0.99999054
0.99999049
0.99999045
0.99999042
0.99999038
0.99999034
0.99999031
0.99999027
0.99999024
0.9999902
0.99999017
0.99999014
5.6689758e-06
0.00035441253
0.011558086
0.14686534
0.28304406
0.39578894
0.4818485
0.54922689
0.60345875
0.64825983
0.68614323
0.71883213
0.74752255
0.77305233
0.79601217
0.81682054
0.83577553
0.8530915
0.86892537
0.88339559
0.89659583
0.90860456
0.91949183
0.92932355
0.93816419
0.94607817
0.95313033
0.95938583
0.96490968
0.969766
0.97401737
0.97772403
0.98094333
0.98372921
0.98613184
0.98819745
0.98996816
0.99148207
0.99277336
0.99387241
0.9948061
0.99559802
0.99626879
0.99683628
0.99731599
0.99772122
0.99806338
0.99835224
0.99859609
0.99880199
0.99897592
0.99912291
0.99924725
0.99935251
0.99944173
0.99951743
0.99958177
0.99963651
0.99968318
0.99972302
0.99975711
0.99978632
0.99981141
0.999833
0.99985162
0.99986771
0.99988165
0.99989374
0.99990427
0.99991345
0.99992147
0.9999285
0.99993466
0.99994009
0.99994487
0.9999491
0.99995284
0.99995616
0.99995911
0.99996174
0.99996408
0.99996618
0.99996805
0.99996973
0.99997124
0.99997259
0.9999738
0.9999749
0.99997588
0.99997677
0.99997757
0.99997829
0.99997894
0.99997953
0.99998006
0.99998053
0.99998096
0.99998134
0.99998168
0.99998199
0.99998226
0.9999825
0.99998271
0.99998289
0.99998305
0.99998319
0.99998331
0.99998341
0.99998349
0.99998355
0.9999836
0.99998364
0.99998366
0.99998367
0.99998367
0.99998366
0.99998362
0.99998355
0.99998343
0.99998329
0.99998312
0.99998292
0.99998269
0.99998244
0.99998217
0.99998188
0.99998156
0.99998124
0.99998089
0.99998053
0.99998015
0.99997977
0.99997937
0.99997896
0.99997855
0.99997812
0.99997769
0.99997725
0.99997681
0.99997637
0.99997592
0.99997547
0.99997502
0.99997457
0.99997412
0.99997367
0.99997323
0.99997279
0.99997235
0.99997192
0.99997149
0.99997106
0.99997065
0.99997024
0.99996983
0.99996944
0.99996905
0.99996867
0.99996829
0.99996793
0.99996758
0.99996723
0.99996689
0.99996656
0.99996625
0.99996594
0.99996564
0.99996535
0.99996506
0.99996479
0.99996453
0.99996427
0.99996403
0.99996379
0.99996356
0.99996334
0.99996313
0.99996293
0.99996273
0.99996254
0.99996236
0.99996218
0.99996201
0.99996185
0.99996169
0.99996154
0.9999614
0.99996126
0.99996112
0.99996099
0.99996086
0.99996074
0.99996062
0.9999605
0.99996039
0.99996028
0.99996017
0.99996006
0.99995996
0.99995986
4.3136761e-08
2.8027835e-07
9.3459644e-06
0.0001069195
0.00024322487
0.023356612
0.069425212
0.12670881
0.18822723
0.24731012
0.30326119
0.35607841
0.40598376
0.45322874
0.49802091
0.54050442
0.58076403
0.61883825
0.65473497
0.68844625
0.71996081
0.74927377
0.77639349
0.80134569
0.8241753
0.84494639
0.86374069
0.88065515
0.89579884
0.9092896
0.92125078
0.93180807
0.94108672
0.9492092
0.95629326
0.96245052
0.96778537
0.97239439
0.97636597
0.9797803
0.98270948
0.9852179
0.98736267
0.9891941
0.9907563
0.99208773
0.99322179
0.99418736
0.99500933
0.99570906
0.99630487
0.99681238
0.99724493
0.99761387
0.99792884
0.998198
0.9984283
0.99862561
0.99879488
0.99894034
0.99906553
0.99917346
0.99926669
0.99934736
0.9994173
0.99947806
0.99953095
0.99957709
0.99961742
0.99965274
0.99968374
0.99971101
0.99973504
0.99975626
0.99977504
0.99979169
0.99980648
0.99981964
0.99983138
0.99984186
0.99985123
0.99985963
0.99986717
0.99987393
0.99988002
0.9998855
0.99989044
0.99989489
0.99989891
0.99990254
0.99990582
0.99990878
0.99991146
0.99991387
0.99991605
0.99991802
0.99991979
0.99992138
0.99992281
0.99992408
0.99992522
0.99992624
0.99992713
0.99992793
0.99992862
0.99992922
0.99992973
0.99993017
0.99993054
0.99993084
0.99993107
0.99993125
0.99993138
0.99993145
0.99993148
0.99993147
0.99993142
0.99993125
0.99993097
0.99993059
0.99993012
0.99992955
0.99992891
0.99992819
0.99992741
0.99992656
0.99992565
0.99992469
0.99992368
0.99992262
0.99992153
0.9999204
0.99991924
0.99991805
0.99991683
0.9999156
0.99991434
0.99991308
0.9999118
0.99991051
0.99990922
0.99990793
0.99990664
0.99990534
0.99990406
0.99990278
0.99990151
0.99990025
0.999899
0.99989777
0.99989656
0.99989536
0.99989418
0.99989303
0.99989189
0.99989078
0.99988969
0.99988862
0.99988758
0.99988656
0.99988557
0.99988461
0.99988367
0.99988276
0.99988188
0.99988102
0.99988019
0.99987938
0.9998786
0.99987785
0.99987713
0.99987643
0.99987575
0.9998751
0.99987447
0.99987386
0.99987328
0.99987272
0.99987218
0.99987166
0.99987117
0.99987069
0.99987023
0.99986978
0.99986936
0.99986894
0.99986855
0.99986817
0.9998678
0.99986744
0.9998671
0.99986676
0.99986644
0.99986612
0.99986582
0.99986552
0.99986522
0.99986494
0.99986465
0.99986437
2.2220311e-10
9.9131366e-10
6.7536159e-09
8.247749e-08
1.974948e-07
1.4309357e-05
4.5477668e-05
9.358263e-05
0.0031027052
0.015234443
0.035888167
0.064743627
0.09915055
0.13790365
0.18004895
0.22474453
0.27122437
0.31877941
0.36675116
0.41453306
0.46157562
0.50739286
0.55156783
0.59375635
0.63368826
0.67116611
0.70606144
0.73830922
0.76790067
0.79487529
0.8193124
0.84132282
0.86104084
0.87861698
0.89421148
0.90798883
0.92011321
0.93074489
0.94003745
0.94813588
0.95517521
0.9612798
0.96656306
0.97112751
0.9750651
0.97845778
0.9813781
0.98388995
0.98604937
0.98790524
0.98950009
0.99087077
0.99204913
0.99306262
0.99393486
0.99468613
0.9953338
0.99589275
0.9963757
0.99679354
0.99715555
0.99746966
0.99774264
0.99798026
0.99818746
0.99836846
0.99852685
0.99866572
0.9987877
0.99889504
0.99898968
0.99907329
0.99914728
0.99921288
0.99927116
0.99932301
0.99936924
0.99941052
0.99944744
0.99948051
0.99951018
0.99953683
0.99956081
0.99958241
0.99960188
0.99961945
0.99963532
0.99964967
0.99966265
0.99967439
0.99968502
0.99969464
0.99970335
0.99971123
0.99971835
0.99972479
0.9997306
0.99973584
0.99974055
0.99974477
0.99974856
0.99975194
0.99975494
0.99975759
0.99975993
0.99976197
0.99976373
0.99976525
0.99976653
0.99976759
0.99976845
0.99976912
0.99976962
0.99976996
0.99977015
0.9997702
0.99977016
0.99976989
0.99976932
0.99976848
0.99976738
0.99976605
0.9997645
0.99976275
0.99976082
0.99975873
0.99975648
0.99975409
0.99975158
0.99974895
0.99974622
0.99974341
0.99974051
0.99973754
0.99973451
0.99973144
0.99972832
0.99972517
0.99972199
0.9997188
0.9997156
0.99971239
0.99970919
0.999706
0.99970283
0.99969968
0.99969655
0.99969346
0.9996904
0.99968738
0.9996844
0.99968148
0.9996786
0.99967577
0.99967301
0.99967029
0.99966764
0.99966505
0.99966253
0.99966006
0.99965767
0.99965533
0.99965307
0.99965087
0.99964873
0.99964667
0.99964466
0.99964273
0.99964086
0.99963905
0.9996373
0.99963562
0.999634
0.99963244
0.99963093
0.99962949
0.9996281
0.99962676
0.99962547
0.99962423
0.99962304
0.9996219
0.9996208
0.99961975
0.99961873
0.99961775
0.99961681
0.9996159
0.99961503
0.99961418
0.99961337
0.99961257
0.99961181
0.99961106
0.99961034
0.99960963
0.99960894
0.99960826
0.99960759
0.99960693
7.7489941e-13
2.4595542e-12
1.0958783e-11
5.7756168e-11
1.4961006e-10
9.6432021e-09
3.0729667e-08
6.6470287e-08
1.5281155e-06
7.712537e-06
2.0478755e-05
4.2801138e-05
0.0033990647
0.011579501
0.025569825
0.045335232
0.070802744
0.10163779
0.1373031
0.17711276
0.22028252
0.26597615
0.31334695
0.36157352
0.40988877
0.45760197
0.50411363
0.54892389
0.59163489
0.63194841
0.66965955
0.70464776
0.73686616
0.76633001
0.79310511
0.81729668
0.83903913
0.85848692
0.87580674
0.89117096
0.90475236
0.91672002
0.92723622
0.93645428
0.9445172
0.9515568
0.95769346
0.96303618
0.96768299
0.97172141
0.97522924
0.97827522
0.98091987
0.98321626
0.98521079
0.98694391
0.98845076
0.98976186
0.99090366
0.991899
0.99276764
0.99352665
0.99419072
0.99477254
0.99528304
0.99573166
0.9961265
0.99647459
0.99678196
0.99705383
0.9972947
0.99750847
0.9976985
0.99786772
0.99801865
0.99815348
0.99827412
0.99838223
0.99847926
0.99856645
0.99864492
0.99871563
0.99877941
0.99883701
0.99888908
0.9989362
0.99897886
0.99901751
0.99905255
0.99908432
0.99911314
0.99913928
0.99916299
0.99918448
0.99920396
0.99922159
0.99923753
0.99925194
0.99926492
0.9992766
0.99928709
0.99929648
0.99930484
0.99931227
0.99931883
0.99932459
0.9993296
0.99933393
0.99933762
0.99934072
0.99934327
0.99934531
0.99934688
0.99934801
0.99934874
0.99934909
0.99934909
0.99934884
0.99934788
0.99934627
0.99934407
0.99934132
0.99933806
0.99933434
0.9993302
0.99932567
0.99932079
0.99931559
0.9993101
0.99930435
0.99929838
0.9992922
0.99928584
0.99927933
0.99927269
0.99926594
0.99925911
0.9992522
0.99924524
0.99923826
0.99923125
0.99922425
0.99921726
0.9992103
0.99920338
0.99919651
0.99918971
0.99918298
0.99917633
0.99916978
0.99916333
0.99915699
0.99915076
0.99914465
0.99913867
0.99913282
0.9991271
0.99912151
0.99911607
0.99911077
0.99910562
0.99910061
0.99909574
0.99909102
0.99908645
0.99908202
0.99907773
0.99907359
0.99906959
0.99906573
0.999062
0.99905841
0.99905495
0.99905162
0.99904842
0.99904534
0.99904237
0.99903953
0.99903679
0.99903416
0.99903164
0.99902921
0.99902688
0.99902464
0.99902248
0.99902041
0.99901842
0.9990165
0.99901465
0.99901286
0.99901113
0.99900946
0.99900784
0.99900627
0.99900474
0.99900324
0.99900178
0.99900035
0.99899895
0.99899756
2.1835818e-15
4.2758575e-15
1.3638189e-14
4.5660057e-14
1.1634787e-13
6.5157845e-12
2.0143034e-11
4.4438085e-11
8.2078045e-10
4.1744571e-09
1.1883376e-08
2.7138541e-08
1.35327e-06
5.595874e-06
0.00037109417
0.0025688687
0.0078399381
0.017084289
0.031033175
0.050124923
0.074494964
0.10399479
0.13823087
0.1766157
0.21842396
0.26284862
0.30905246
0.35621247
0.40355545
0.45038422
0.49609487
0.54018577
0.58225985
0.62202129
0.65926822
0.69388281
0.72581977
0.75509431
0.78177027
0.80594903
0.82775939
0.84734878
0.86487579
0.88050399
0.89439707
0.90671503
0.91761141
0.92723133
0.93571024
0.94317325
0.94973488
0.95549912
0.96055981
0.96500112
0.96889816
0.9723177
0.97531884
0.97795371
0.98026822
0.98230265
0.98409229
0.98566802
0.98705678
0.98828212
0.98936453
0.99032188
0.99116973
0.99192161
0.99258934
0.99318317
0.99371204
0.99418375
0.99460509
0.99498199
0.99531962
0.99562251
0.99589459
0.99613934
0.99635978
0.99655858
0.99673808
0.99690032
0.99704711
0.99718007
0.99730058
0.99740991
0.99750914
0.99759927
0.99768116
0.99775559
0.99782323
0.99788472
0.9979406
0.99799135
0.99803744
0.99807924
0.99811712
0.9981514
0.99818238
0.99821031
0.99823543
0.99825797
0.99827812
0.99829606
0.99831196
0.99832597
0.99833823
0.99834886
0.99835799
0.99836572
0.99837216
0.9983774
0.99838152
0.99838461
0.99838674
0.99838799
0.99838841
0.99838825
0.99838691
0.99838422
0.99838029
0.99837521
0.99836907
0.99836197
0.998354
0.99834522
0.99833572
0.99832555
0.9983148
0.99830352
0.99829178
0.99827962
0.9982671
0.99825428
0.99824119
0.99822789
0.99821442
0.99820081
0.99818712
0.99817336
0.99815958
0.99814581
0.99813207
0.99811839
0.99810481
0.99809134
0.99807801
0.99806483
0.99805182
0.998039
0.99802639
0.99801401
0.99800185
0.99798994
0.99797827
0.99796688
0.99795574
0.99794489
0.99793431
0.99792402
0.99791401
0.99790428
0.99789485
0.99788571
0.99787685
0.99786827
0.99785999
0.99785198
0.99784425
0.99783679
0.9978296
0.99782267
0.997816
0.99780959
0.99780341
0.99779748
0.99779178
0.9977863
0.99778104
0.99777599
0.99777113
0.99776648
0.997762
0.9977577
0.99775357
0.9977496
0.99774578
0.9977421
0.99773855
0.99773513
0.99773183
0.99772863
0.99772553
0.99772252
0.9977196
0.99771675
0.99771396
0.99771123
0.99770855
0.9977059
6.0450679e-18
6.701022e-18
1.7581672e-17
5.9043079e-17
2.8448749e-16
3.9394347e-15
1.2317915e-14
2.7443712e-14
4.4637631e-13
2.282672e-12
6.8257183e-12
1.6710623e-11
6.0083052e-10
2.974954e-09
1.5239207e-07
1.1680717e-06
0.00010973096
0.0010014696
0.0035044536
0.0084991732
0.016850894
0.029285262
0.046313032
0.068190129
0.09491027
0.12622396
0.16167618
0.20065498
0.24244421
0.28627468
0.33137003
0.37698477
0.42243332
0.4671102
0.51050185
0.55219132
0.59185727
0.62926857
0.66427598
0.696802
0.72682997
0.75439304
0.77956367
0.80244407
0.82315762
0.8418416
0.85864105
0.87370385
0.88717679
0.8992026
0.90991784
0.91945138
0.9279235
0.9354454
0.94211907
0.94803741
0.95328453
0.95793625
0.96206055
0.96571819
0.9689633
0.97184397
0.97440282
0.97667755
0.97870144
0.98050387
0.98211068
0.98354466
0.98482584
0.98597184
0.98699814
0.98791836
0.98874449
0.98948704
0.9901553
0.99075742
0.99130059
0.99179114
0.99223466
0.99263608
0.99299978
0.9933296
0.99362896
0.9939009
0.9941481
0.99437295
0.99457758
0.99476389
0.99493357
0.99508812
0.99522891
0.99535715
0.99547391
0.9955802
0.99567687
0.99576473
0.9958445
0.99591683
0.9959823
0.99604145
0.99609478
0.99614271
0.99618567
0.99622401
0.99625809
0.99628821
0.99631466
0.99633772
0.99635761
0.99637457
0.99638882
0.99640054
0.99640992
0.99641714
0.99642234
0.99642568
0.99642729
0.99642731
0.99642585
0.99642183
0.99641544
0.99640689
0.99639635
0.996384
0.99637
0.99635448
0.99633761
0.99631951
0.9963003
0.99628011
0.99625906
0.99623724
0.99621477
0.99619173
0.99616821
0.99614431
0.9961201
0.99609565
0.99607103
0.99604632
0.99602158
0.99599686
0.99597221
0.99594769
0.99592334
0.99589921
0.99587534
0.99585175
0.9958285
0.99580559
0.99578307
0.99576095
0.99573927
0.99571802
0.99569725
0.99567695
0.99565714
0.99563782
0.99561902
0.99560073
0.99558295
0.9955657
0.99554896
0.99553275
0.99551705
0.99550187
0.9954872
0.99547303
0.99545935
0.99544617
0.99543347
0.99542123
0.99540946
0.99539814
0.99538725
0.99537679
0.99536674
0.99535709
0.99534783
0.99533893
0.9953304
0.9953222
0.99531434
0.99530678
0.99529953
0.99529255
0.99528584
0.99527939
0.99527316
0.99526716
0.99526137
0.99525576
0.99525033
0.99524505
0.99523993
0.99523493
0.99523005
0.99522527
0.99522057
0.99521593
1.7924361e-20
9.2566965e-21
1.8497545e-20
5.5448439e-20
2.4558502e-19
2.2104321e-18
6.9057742e-18
1.5546221e-17
2.3379363e-16
1.2212238e-15
5.1835623e-15
1.9292352e-13
1.4660711e-11
6.2326985e-10
1.3006703e-08
9.8192474e-08
3.9954205e-07
1.2446207e-06
0.00010407234
0.00068361595
0.0022869311
0.0056157393
0.01143467
0.020474438
0.033345477
0.050474338
0.072068028
0.098105803
0.12835411
0.16239846
0.19968545
0.23956887
0.28135476
0.32434197
0.36785581
0.41127394
0.45404433
0.49569591
0.53584301
0.57418465
0.61050011
0.64464185
0.67652678
0.70612684
0.73345951
0.75857862
0.78156599
0.80252391
0.82156864
0.83882497
0.85442174
0.8684882
0.88115135
0.89253375
0.90275216
0.91191647
0.92012917
0.9274851
0.93407135
0.93996752
0.94524593
0.94997205
0.95420489
0.95799752
0.9613975
0.96444737
0.96718511
0.96964458
0.97185592
0.97384591
0.97563839
0.9772545
0.97871302
0.98003061
0.98122208
0.98230055
0.98327769
0.98416384
0.98496822
0.98569901
0.98636348
0.98696812
0.98751871
0.9880204
0.98847779
0.98889499
0.98927568
0.98962315
0.98994037
0.99022998
0.99049436
0.99073568
0.99095586
0.99115665
0.99133964
0.99150625
0.99165779
0.99179543
0.99192024
0.99203322
0.99213524
0.99222714
0.99230965
0.99238347
0.99244922
0.99250749
0.99255883
0.99260371
0.99264262
0.99267597
0.99270416
0.99272756
0.99274651
0.99276134
0.99277235
0.99277983
0.99278403
0.9927852
0.99278417
0.99277869
0.99276912
0.9927558
0.99273905
0.99271915
0.9926964
0.99267105
0.99264336
0.99261356
0.99258186
0.99254849
0.99251364
0.99247749
0.99244022
0.992402
0.99236298
0.9923233
0.99228311
0.99224254
0.9922017
0.99216071
0.99211967
0.99207868
0.99203784
0.99199722
0.99195691
0.99191697
0.99187748
0.99183849
0.99180005
0.99176223
0.99172505
0.99168856