/*--------------------------------*- C++ -*----------------------------------*\
| =========                 |                                                 |
| \\      /  F ield         | OpenFOAM: The Open Source CFD Toolbox           |
|  \\    /   O peration     | Version:  2406                                  |
|   \\  /    A nd           | Website:  www.openfoam.com                      |
|    \\/     M anipulation  |                                                 |
\*---------------------------------------------------------------------------*/
FoamFile
{
    version     2.0;
    format      ascii;
    arch        "LSB;label=32;scalar=64";
    class       volVectorField;
    location    "1437";
    object      U;
}
// * * * * * * * * * * * * * * * * * * * * * * * * * * * * * * * * * * * * * //

dimensions      [0 1 -1 0 0 0 0];

internalField   nonuniform List<vector> 
9800
(
(-3.9623342e-05 3.7851075e-05 0)
(-0.00025420209 6.8067016e-05 0)
(-0.00051413324 6.6325814e-05 0)
(-0.00072418179 4.6564766e-05 0)
(-0.00083497463 2.3226214e-05 0)
(-0.00084656045 2.3903847e-06 0)
(-0.00077723581 -1.3556603e-05 0)
(-0.00064997949 -2.430322e-05 0)
(-0.00048644716 -3.053473e-05 0)
(-0.00030444683 -3.3262965e-05 0)
(-0.0001173738 -3.348093e-05 0)
(6.5387877e-05 -3.2030498e-05 0)
(0.00023771392 -2.9571247e-05 0)
(0.00039594409 -2.6590303e-05 0)
(0.00053819979 -2.3416014e-05 0)
(0.00066384133 -2.0259697e-05 0)
(0.00077304873 -1.7250594e-05 0)
(0.00086652063 -1.4461424e-05 0)
(0.00094526378 -1.1927276e-05 0)
(0.0010104488 -9.6590537e-06 0)
(0.0010633136 -7.6526781e-06 0)
(0.0011050997 -5.8952278e-06 0)
(0.0011370123 -4.3689574e-06 0)
(0.0011601951 -3.0538806e-06 0)
(0.0011757165 -1.9294019e-06 0)
(0.0011845626 -9.7531997e-07 0)
(0.0011876347 -1.7243129e-07 0)
(0.0011857505 4.9722278e-07 0)
(0.0011796462 1.0502754e-06 0)
(0.0011699809 1.5017718e-06 0)
(0.0011573415 1.8652477e-06 0)
(0.0011422484 2.1527715e-06 0)
(0.001125161 2.3750405e-06 0)
(0.001106483 2.5414913e-06 0)
(0.001086568 2.660413e-06 0)
(0.0010657242 2.7390584e-06 0)
(0.0010442193 2.7837516e-06 0)
(0.0010222844 2.7999883e-06 0)
(0.0010001186 2.7925299e-06 0)
(0.00097789224 2.7654895e-06 0)
(0.00095575023 2.7224098e-06 0)
(0.00093381517 2.6663339e-06 0)
(0.00091218993 2.5998684e-06 0)
(0.00089096011 2.5252396e-06 0)
(0.00087019616 2.4443434e-06 0)
(0.00084995532 2.3587894e-06 0)
(0.0008302833 2.2699392e-06 0)
(0.00081121581 2.1789406e-06 0)
(0.00079277987 2.0867568e-06 0)
(0.000774995 1.9941927e-06 0)
(0.00075787427 1.9019165e-06 0)
(0.00074142517 1.8104802e-06 0)
(0.00072565047 1.7203351e-06 0)
(0.00071054888 1.6318478e-06 0)
(0.00069611569 1.5453115e-06 0)
(0.00068234331 1.4609579e-06 0)
(0.00066922171 1.3789657e-06 0)
(0.00065673889 1.2994694e-06 0)
(0.00064488118 1.2225656e-06 0)
(0.00063363359 1.1483194e-06 0)
(0.00062298006 1.0767694e-06 0)
(0.00061290373 1.0079319e-06 0)
(0.00060338708 9.4180489e-07 0)
(0.00059441217 8.78371e-07 0)
(0.00058596076 8.1760046e-07 0)
(0.00057801444 7.5945332e-07 0)
(0.00057055475 7.038814e-07 0)
(0.00056356326 6.5083007e-07 0)
(0.00055702168 6.0023952e-07 0)
(0.00055091189 5.520461e-07 0)
(0.00054521603 5.0618321e-07 0)
(0.00053991653 4.6258223e-07 0)
(0.00053499614 4.2117317e-07 0)
(0.00053043801 3.8188526e-07 0)
(0.00052622564 3.4464747e-07 0)
(0.00052234298 3.0938889e-07 0)
(0.00051877437 2.7603906e-07 0)
(0.00051550463 2.4452829e-07 0)
(0.00051251899 2.1478778e-07 0)
(0.00050980317 1.867499e-07 0)
(0.00050734333 1.6034822e-07 0)
(0.00050512608 1.3551773e-07 0)
(0.0005031385 1.1219484e-07 0)
(0.00050136811 9.0317443e-08 0)
(0.0004998029 6.9825044e-08 0)
(0.00049843129 5.0658737e-08 0)
(0.00049724213 3.2761206e-08 0)
(0.00049622472 1.6076863e-08 0)
(0.00049536875 5.5164149e-10 0)
(0.00049466436 -1.3866783e-08 0)
(0.00049410207 -2.7229188e-08 0)
(0.0004936728 -3.9584718e-08 0)
(0.00049336786 -5.0980905e-08 0)
(0.00049317892 -6.1463788e-08 0)
(0.00049309804 -7.1077783e-08 0)
(0.00049311761 -7.9865829e-08 0)
(0.00049323037 -8.7869194e-08 0)
(0.0004934294 -9.5127723e-08 0)
(0.00049370809 -1.0167991e-07 0)
(0.00049406016 -1.0756291e-07 0)
(0.00049447962 -1.128124e-07 0)
(0.00049496078 -1.1746273e-07 0)
(0.00049549822 -1.215469e-07 0)
(0.00049608681 -1.2509663e-07 0)
(0.00049672167 -1.2814238e-07 0)
(0.00049739817 -1.3071346e-07 0)
(0.00049811195 -1.3283799e-07 0)
(0.00049885885 -1.3454294e-07 0)
(0.00049963497 -1.3585418e-07 0)
(0.00050043659 -1.3679644e-07 0)
(0.00050126024 -1.3739347e-07 0)
(0.00050210264 -1.3766804e-07 0)
(0.00050296067 -1.3764195e-07 0)
(0.00050383144 -1.37336e-07 0)
(0.00050471222 -1.3677019e-07 0)
(0.00050560045 -1.3596344e-07 0)
(0.00050649374 -1.3493397e-07 0)
(0.00050738984 -1.336991e-07 0)
(0.00050828668 -1.3227538e-07 0)
(0.00050918231 -1.306787e-07 0)
(0.00051007492 -1.2892417e-07 0)
(0.00051096286 -1.2702612e-07 0)
(0.00051184456 -1.2499827e-07 0)
(0.00051271861 -1.2285353e-07 0)
(0.00051358369 -1.2060425e-07 0)
(0.00051443862 -1.182622e-07 0)
(0.00051528228 -1.1583856e-07 0)
(0.00051611369 -1.1334388e-07 0)
(0.00051693195 -1.1078819e-07 0)
(0.00051773624 -1.0818087e-07 0)
(0.00051852585 -1.0553082e-07 0)
(0.00051930012 -1.0284654e-07 0)
(0.00052005851 -1.0013599e-07 0)
(0.00052080051 -9.7406626e-08 0)
(0.0005215257 -9.4665611e-08 0)
(0.00052223373 -9.1919319e-08 0)
(0.0005229243 -8.9173997e-08 0)
(0.00052359718 -8.6435296e-08 0)
(0.00052425218 -8.3708559e-08 0)
(0.00052488917 -8.0998868e-08 0)
(0.00052550808 -7.8310889e-08 0)
(0.00052610887 -7.5648893e-08 0)
(0.00052669153 -7.3016874e-08 0)
(0.00052725613 -7.0418347e-08 0)
(0.00052780274 -6.7856596e-08 0)
(0.00052833148 -6.5334698e-08 0)
(0.0005288425 -6.2855423e-08 0)
(0.00052933597 -6.042124e-08 0)
(0.0005298121 -5.8034419e-08 0)
(0.00053027112 -5.569684e-08 0)
(0.00053071328 -5.341021e-08 0)
(0.00053113885 -5.1176136e-08 0)
(0.00053154812 -4.8995846e-08 0)
(0.00053194141 -4.68706e-08 0)
(0.00053231903 -4.4801241e-08 0)
(0.00053268132 -4.2788625e-08 0)
(0.00053302863 -4.0833273e-08 0)
(0.00053336132 -3.893569e-08 0)
(0.00053367974 -3.7096128e-08 0)
(0.00053398428 -3.5314784e-08 0)
(0.00053427533 -3.3591778e-08 0)
(0.00053455325 -3.1926961e-08 0)
(0.00053481845 -3.0320278e-08 0)
(0.00053507132 -2.8771318e-08 0)
(0.00053531225 -2.7279786e-08 0)
(0.00053554165 -2.5845228e-08 0)
(0.00053575991 -2.4467252e-08 0)
(0.00053596742 -2.314525e-08 0)
(0.00053616459 -2.1878747e-08 0)
(0.00053635181 -2.0666952e-08 0)
(0.00053652948 -1.9509278e-08 0)
(0.00053669799 -1.8404923e-08 0)
(0.00053685773 -1.7353279e-08 0)
(0.00053700909 -1.6353517e-08 0)
(0.00053715245 -1.5405076e-08 0)
(0.0005372882 -1.4507087e-08 0)
(0.00053741671 -1.3659058e-08 0)
(0.00053753836 -1.2860206e-08 0)
(0.00053765354 -1.2110177e-08 0)
(0.0005377626 -1.1408365e-08 0)
(0.00053786593 -1.075472e-08 0)
(0.0005379639 -1.0148896e-08 0)
(0.00053805689 -9.5914046e-09 0)
(0.00053814528 -9.0828193e-09 0)
(0.00053822947 -8.6249116e-09 0)
(0.00053830986 -8.2201964e-09 0)
(0.00053838689 -7.8734032e-09 0)
(0.00053846103 -7.5913498e-09 0)
(0.00053853281 -7.3859264e-09 0)
(0.00053860284 -7.2759818e-09 0)
(0.00053867184 -7.2927488e-09 0)
(0.00053874073 -7.4889132e-09 0)
(0.0005388107 -7.952928e-09 0)
(0.00053888339 -8.8376296e-09 0)
(0.00053896115 -1.0421875e-08 0)
(0.00053904736 -1.3228542e-08 0)
(0.00053914625 -1.7942694e-08 0)
(0.00053926518 -2.5047227e-08 0)
(0.0005394349 -4.0820159e-08 0)
(0.00053966802 -8.4316659e-08 0)
(-9.017887e-05 0.00027083089 0)
(-0.00056198043 0.00048538534 0)
(-0.0010535889 0.0004565958 0)
(-0.0014056986 0.00029868316 0)
(-0.0015440742 0.00010714817 0)
(-0.0014804655 -6.5787737e-05 0)
(-0.0012567032 -0.00019911995 0)
(-0.00092084259 -0.00028949208 0)
(-0.00051669692 -0.00034192346 0)
(-7.9751086e-05 -0.00036435717 0)
(0.00036342742 -0.00036483788 0)
(0.00079413103 -0.00035032892 0)
(0.0012000227 -0.00032632436 0)
(0.0015735743 -0.00029691945 0)
(0.0019107821 -0.0002650218 0)
(0.0022101186 -0.0002326171 0)
(0.0024717461 -0.00020100834 0)
(0.0026969414 -0.00017100911 0)
(0.0028876835 -0.00014309116 0)
(0.0030463623 -0.00011749267 0)
(0.0031755765 -9.4295293e-05 0)
(0.0032779945 -7.3478198e-05 0)
(0.0033562602 -5.4955288e-05 0)
(0.0034129314 -3.8600766e-05 0)
(0.0034504395 -2.426653e-05 0)
(0.0034710656 -1.1793943e-05 0)
(0.0034769278 -1.0216799e-06 0)
(0.0034699755 8.2093494e-06 0)
(0.0034519895 1.6053044e-05 0)
(0.0034245855 2.2654792e-05 0)
(0.0033892217 2.8150225e-05 0)
(0.0033472075 3.2664636e-05 0)
(0.0032997129 3.6312866e-05 0)
(0.003247779 3.9199509e-05 0)
(0.0031923282 4.1419293e-05 0)
(0.0031341741 4.3057603e-05 0)
(0.0030740312 4.4191074e-05 0)
(0.0030125245 4.4888221e-05 0)
(0.002950198 4.5210088e-05 0)
(0.0028875228 4.521089e-05 0)
(0.0028249051 4.4938633e-05 0)
(0.0027626926 4.4435712e-05 0)
(0.0027011812 4.3739464e-05 0)
(0.002640621 4.2882689e-05 0)
(0.0025812212 4.1894133e-05 0)
(0.0025231548 4.0798925e-05 0)
(0.0024665633 3.9618977e-05 0)
(0.0024115603 3.8373346e-05 0)
(0.0023582348 3.7078561e-05 0)
(0.0023066546 3.5748917e-05 0)
(0.0022568689 3.4396738e-05 0)
(0.0022089105 3.3032609e-05 0)
(0.0021627984 3.1665586e-05 0)
(0.0021185394 3.0303385e-05 0)
(0.00207613 2.8952539e-05 0)
(0.0020355578 2.7618554e-05 0)
(0.0019968028 2.6306028e-05 0)
(0.0019598387 2.5018772e-05 0)
(0.0019246339 2.3759911e-05 0)
(0.0018911522 2.2531966e-05 0)
(0.0018593539 2.133694e-05 0)
(0.0018291964 2.0176384e-05 0)
(0.0018006348 1.9051454e-05 0)
(0.0017736221 1.7962971e-05 0)
(0.0017481105 1.6911463e-05 0)
(0.0017240508 1.5897208e-05 0)
(0.0017013936 1.4920268e-05 0)
(0.0016800889 1.3980524e-05 0)
(0.0016600871 1.30777e-05 0)
(0.0016413383 1.2211388e-05 0)
(0.0016237936 1.138107e-05 0)
(0.0016074041 1.0586137e-05 0)
(0.0015921221 9.8259016e-06 0)
(0.0015779004 9.0996157e-06 0)
(0.0015646928 8.40648e-06 0)
(0.0015524542 7.7456561e-06 0)
(0.0015411405 7.1162744e-06 0)
(0.0015307087 6.517443e-06 0)
(0.0015211169 5.9482538e-06 0)
(0.0015123245 5.4077887e-06 0)
(0.0015042921 4.8951245e-06 0)
(0.0014969813 4.4093377e-06 0)
(0.0014903553 3.9495074e-06 0)
(0.0014843782 3.5147195e-06 0)
(0.0014790155 3.1040688e-06 0)
(0.0014742338 2.7166614e-06 0)
(0.001470001 2.351617e-06 0)
(0.0014662861 2.0080706e-06 0)
(0.0014630594 1.6851732e-06 0)
(0.0014602921 1.3820937e-06 0)
(0.0014579568 1.0980196e-06 0)
(0.001456027 8.3215735e-07 0)
(0.0014544775 5.8373358e-07 0)
(0.001453284 3.5199497e-07 0)
(0.0014524231 1.3620895e-07 0)
(0.0014518728 -6.4336083e-08 0)
(0.0014516116 -2.5033095e-07 0)
(0.0014516194 -4.224455e-07 0)
(0.0014518766 -5.8132835e-07 0)
(0.0014523648 -7.2760783e-07 0)
(0.0014530662 -8.6189176e-07 0)
(0.0014539642 -9.8476752e-07 0)
(0.0014550427 -1.0968024e-06 0)
(0.0014562864 -1.1985439e-06 0)
(0.001457681 -1.2905202e-06 0)
(0.0014592126 -1.3732405e-06 0)
(0.0014608682 -1.4471956e-06 0)
(0.0014626355 -1.5128581e-06 0)
(0.0014645027 -1.5706827e-06 0)
(0.0014664588 -1.621107e-06 0)
(0.0014684933 -1.6645516e-06 0)
(0.0014705964 -1.701421e-06 0)
(0.0014727586 -1.7321038e-06 0)
(0.0014749712 -1.7569728e-06 0)
(0.001477226 -1.7763863e-06 0)
(0.0014795151 -1.7906873e-06 0)
(0.0014818313 -1.8002052e-06 0)
(0.0014841677 -1.8052554e-06 0)
(0.0014865179 -1.8061402e-06 0)
(0.0014888761 -1.8031492e-06 0)
(0.0014912364 -1.7965595e-06 0)
(0.0014935939 -1.7866361e-06 0)
(0.0014959437 -1.7736322e-06 0)
(0.0014982813 -1.7577897e-06 0)
(0.0015006025 -1.7393394e-06 0)
(0.0015029037 -1.7185018e-06 0)
(0.0015051813 -1.695487e-06 0)
(0.001507432 -1.6704952e-06 0)
(0.0015096531 -1.6437169e-06 0)
(0.0015118418 -1.6153331e-06 0)
(0.0015139957 -1.5855159e-06 0)
(0.0015161127 -1.5544287e-06 0)
(0.0015181909 -1.5222267e-06 0)
(0.0015202286 -1.4890566e-06 0)
(0.0015222242 -1.4550574e-06 0)
(0.0015241764 -1.4203601e-06 0)
(0.0015260843 -1.3850883e-06 0)
(0.0015279467 -1.3493587e-06 0)
(0.0015297629 -1.3132809e-06 0)
(0.0015315324 -1.2769583e-06 0)
(0.0015332546 -1.2404879e-06 0)
(0.0015349292 -1.2039602e-06 0)
(0.001536556 -1.1674598e-06 0)
(0.0015381349 -1.1310653e-06 0)
(0.001539666 -1.09485e-06 0)
(0.0015411493 -1.0588821e-06 0)
(0.0015425851 -1.0232248e-06 0)
(0.0015439737 -9.8793623e-07 0)
(0.0015453156 -9.5306985e-07 0)
(0.0015466112 -9.1867443e-07 0)
(0.001547861 -8.847947e-07 0)
(0.0015490657 -8.5147145e-07 0)
(0.001550226 -8.1874154e-07 0)
(0.0015513426 -7.8663837e-07 0)
(0.0015524162 -7.5519161e-07 0)
(0.0015534477 -7.2442777e-07 0)
(0.0015544381 -6.9437008e-07 0)
(0.0015553881 -6.6503892e-07 0)
(0.0015562987 -6.3645184e-07 0)
(0.0015571708 -6.0862387e-07 0)
(0.0015580055 -5.8156771e-07 0)
(0.0015588038 -5.5529346e-07 0)
(0.0015595666 -5.2980938e-07 0)
(0.0015602951 -5.0512132e-07 0)
(0.0015609902 -4.812337e-07 0)
(0.001561653 -4.5814927e-07 0)
(0.0015622846 -4.3586946e-07 0)
(0.001562886 -4.1439417e-07 0)
(0.0015634584 -3.9372219e-07 0)
(0.0015640027 -3.7385091e-07 0)
(0.0015645201 -3.547771e-07 0)
(0.0015650116 -3.3649663e-07 0)
(0.0015654782 -3.1900505e-07 0)
(0.0015659211 -3.0229731e-07 0)
(0.0015663413 -2.8636843e-07 0)
(0.0015667399 -2.7121314e-07 0)
(0.0015671178 -2.5682684e-07 0)
(0.0015674761 -2.4320527e-07 0)
(0.0015678159 -2.3034563e-07 0)
(0.0015681382 -2.1824646e-07 0)
(0.0015684441 -2.0690916e-07 0)
(0.0015687345 -1.963381e-07 0)
(0.0015690105 -1.8654317e-07 0)
(0.0015692733 -1.7754101e-07 0)
(0.0015695239 -1.6935889e-07 0)
(0.0015697634 -1.6203813e-07 0)
(0.0015699931 -1.5564125e-07 0)
(0.0015702142 -1.5025997e-07 0)
(0.0015704283 -1.4603077e-07 0)
(0.0015706368 -1.4315487e-07 0)
(0.0015708417 -1.4193083e-07 0)
(0.0015710453 -1.4280426e-07 0)
(0.0015712502 -1.4644186e-07 0)
(0.00157146 -1.5384984e-07 0)
(0.0015716791 -1.6654444e-07 0)
(0.0015719131 -1.8676768e-07 0)
(0.0015721676 -2.1767782e-07 0)
(0.0015724505 -2.636486e-07 0)
(0.0015727971 -3.2993904e-07 0)
(0.0015732051 -4.0605055e-07 0)
(-0.00012641813 0.00064327277 0)
(-0.00071329612 0.001052675 0)
(-0.0012075648 0.00091327371 0)
(-0.001465287 0.0005243977 0)
(-0.0014454818 8.8339184e-05 0)
(-0.0011928938 -0.00029141145 0)
(-0.00077102061 -0.00057682539 0)
(-0.00024034233 -0.00076542196 0)
(0.00034924106 -0.00087068248 0)
(0.0009596152 -0.00091099476 0)
(0.0015634458 -0.0009040796 0)
(0.00214195 -0.00086491538 0)
(0.0026829394 -0.00080521906 0)
(0.0031790907 -0.00073369555 0)
(0.0036266017 -0.00065657551 0)
(0.0040241638 -0.00057817535 0)
(0.0043722032 -0.00050138777 0)
(0.0046723251 -0.00042807519 0)
(0.0049269113 -0.00035936927 0)
(0.0051388282 -0.00029589136 0)
(0.0053112168 -0.00023791129 0)
(0.0054473418 -0.0001854603 0)
(0.0055504829 -0.00013841055 0)
(0.0056238592 -9.6531155e-05 0)
(0.0056705752 -5.9527404e-05 0)
(0.0056935854 -2.7068357e-05 0)
(0.0056956714 1.193923e-06 0)
(0.0056794275 2.5612264e-05 0)
(0.0056472534 4.6534752e-05 0)
(0.0056013544 6.4296565e-05 0)
(0.0055437453 7.9215652e-05 0)
(0.0054762562 9.1590249e-05 0)
(0.0054005417 0.00010169761 0)
(0.0053180902 0.00010979357 0)
(0.0052302343 0.00011611268 0)
(0.0051381621 0.00012086882 0)
(0.0050429282 0.00012425604 0)
(0.004945464 0.00012644969 0)
(0.0048465889 0.00012760752 0)
(0.0047470199 0.00012787104 0)
(0.0046473812 0.00012736669 0)
(0.0045482134 0.00012620717 0)
(0.0044499814 0.00012449261 0)
(0.0043530827 0.00012231176 0)
(0.0042578539 0.00011974304 0)
(0.0041645777 0.00011685563 0)
(0.0040734886 0.00011371031 0)
(0.0039847782 0.00011036044 0)
(0.0038986005 0.00010685268 0)
(0.003815076 0.00010322772 0)
(0.0037342959 9.9520964e-05 0)
(0.0036563255 9.5763095e-05 0)
(0.0035812075 9.1980616e-05 0)
(0.0035089651 8.8196325e-05 0)
(0.0034396044 8.4429745e-05 0)
(0.0033731167 8.0697504e-05 0)
(0.0033094805 7.701368e-05 0)
(0.0032486638 7.3390104e-05 0)
(0.0031906249 6.9836628e-05 0)
(0.0031353148 6.6361374e-05 0)
(0.0030826776 6.297094e-05 0)
(0.0030326524 5.9670596e-05 0)
(0.0029851737 5.6464448e-05 0)
(0.0029401725 5.3355592e-05 0)
(0.0028975774 5.0346241e-05 0)
(0.0028573147 4.7437848e-05 0)
(0.0028193093 4.4631203e-05 0)
(0.0027834853 4.1926525e-05 0)
(0.0027497664 3.9323547e-05 0)
(0.002718076 3.6821583e-05 0)
(0.002688338 3.4419587e-05 0)
(0.0026604768 3.2116216e-05 0)
(0.0026344176 2.9909869e-05 0)
(0.0026100866 2.7798737e-05 0)
(0.0025874113 2.5780832e-05 0)
(0.0025663206 2.3854027e-05 0)
(0.0025467446 2.2016078e-05 0)
(0.0025286154 2.0264655e-05 0)
(0.0025118665 1.8597356e-05 0)
(0.0024964331 1.7011733e-05 0)
(0.0024822525 1.5505302e-05 0)
(0.0024692634 1.4075564e-05 0)
(0.0024574068 1.2720009e-05 0)
(0.0024466251 1.1436135e-05 0)
(0.0024368629 1.0221452e-05 0)
(0.0024280666 9.07349e-06 0)
(0.0024201844 7.9898096e-06 0)
(0.0024131663 6.9680036e-06 0)
(0.0024069642 6.005704e-06 0)
(0.0024015319 5.1005855e-06 0)
(0.0023968246 4.2503692e-06 0)
(0.0023927996 3.4528252e-06 0)
(0.0023894158 2.7057748e-06 0)
(0.0023866338 2.0070926e-06 0)
(0.0023844155 1.3547079e-06 0)
(0.0023827249 7.466055e-07 0)
(0.0023815273 1.8082684e-07 0)
(0.0023807893 -3.4452965e-07 0)
(0.0023804793 -8.3130967e-07 0)
(0.0023805669 -1.2813012e-06 0)
(0.0023810233 -1.6962363e-06 0)
(0.0023818208 -2.0777912e-06 0)
(0.0023829331 -2.4275864e-06 0)
(0.0023843351 -2.7471876e-06 0)
(0.002386003 -3.0381068e-06 0)
(0.0023879141 -3.301803e-06 0)
(0.0023900469 -3.5396835e-06 0)
(0.0023923809 -3.7531049e-06 0)
(0.0023948967 -3.9433737e-06 0)
(0.002397576 -4.1117483e-06 0)
(0.0024004012 -4.2594394e-06 0)
(0.002403356 -4.387612e-06 0)
(0.0024064248 -4.4973861e-06 0)
(0.0024095928 -4.589838e-06 0)
(0.0024128463 -4.6660015e-06 0)
(0.0024161722 -4.7268689e-06 0)
(0.0024195582 -4.7733928e-06 0)
(0.0024229928 -4.8064866e-06 0)
(0.0024264652 -4.8270265e-06 0)
(0.0024299652 -4.8358522e-06 0)
(0.0024334835 -4.8337681e-06 0)
(0.0024370111 -4.821544e-06 0)
(0.0024405398 -4.7999164e-06 0)
(0.0024440619 -4.7695894e-06 0)
(0.0024475705 -4.731236e-06 0)
(0.0024510588 -4.6854991e-06 0)
(0.0024545208 -4.6329924e-06 0)
(0.002457951 -4.5743009e-06 0)
(0.0024613441 -4.5099819e-06 0)
(0.0024646956 -4.4405662e-06 0)
(0.0024680011 -4.3665587e-06 0)
(0.0024712569 -4.2884395e-06 0)
(0.0024744593 -4.2066645e-06 0)
(0.0024776053 -4.1216663e-06 0)
(0.0024806921 -4.0338544e-06 0)
(0.0024837173 -3.9436163e-06 0)
(0.0024866786 -3.8513182e-06 0)
(0.0024895743 -3.757306e-06 0)
(0.0024924027 -3.6619058e-06 0)
(0.0024951625 -3.565425e-06 0)
(0.0024978527 -3.4681523e-06 0)
(0.0025004724 -3.3703588e-06 0)
(0.0025030209 -3.2722978e-06 0)
(0.0025054979 -3.1742062e-06 0)
(0.0025079031 -3.0763052e-06 0)
(0.0025102365 -2.9788007e-06 0)
(0.0025124981 -2.8818843e-06 0)
(0.0025146883 -2.7857331e-06 0)
(0.0025168074 -2.6905108e-06 0)
(0.002518856 -2.5963677e-06 0)
(0.0025208347 -2.5034422e-06 0)
(0.0025227444 -2.411861e-06 0)
(0.0025245859 -2.3217395e-06 0)
(0.0025263601 -2.2331825e-06 0)
(0.0025280682 -2.1462846e-06 0)
(0.0025297114 -2.0611306e-06 0)
(0.0025312907 -1.9777963e-06 0)
(0.0025328075 -1.8963485e-06 0)
(0.0025342632 -1.8168464e-06 0)
(0.0025356591 -1.7393411e-06 0)
(0.0025369966 -1.6638769e-06 0)
(0.0025382773 -1.5904909e-06 0)
(0.0025395026 -1.5192141e-06 0)
(0.002540674 -1.4500713e-06 0)
(0.0025417932 -1.3830822e-06 0)
(0.0025428618 -1.3182618e-06 0)
(0.0025438812 -1.2556206e-06 0)
(0.0025448531 -1.1951648e-06 0)
(0.0025457792 -1.1368969e-06 0)
(0.0025466611 -1.0808159e-06 0)
(0.0025475003 -1.0269181e-06 0)
(0.0025482985 -9.7519773e-07 0)
(0.0025490574 -9.2564685e-07 0)
(0.0025497786 -8.7825649e-07 0)
(0.0025504636 -8.3301669e-07 0)
(0.0025511142 -7.8991757e-07 0)
(0.0025517319 -7.489498e-07 0)
(0.0025523183 -7.1010588e-07 0)
(0.0025528751 -6.7338104e-07 0)
(0.0025534038 -6.3877516e-07 0)
(0.0025539061 -6.062944e-07 0)
(0.0025543836 -5.7595442e-07 0)
(0.002554838 -5.4778382e-07 0)
(0.0025552708 -5.218299e-07 0)
(0.0025556839 -4.9816549e-07 0)
(0.0025560789 -4.7689941e-07 0)
(0.0025564578 -4.5818996e-07 0)
(0.0025568224 -4.4226543e-07 0)
(0.002557175 -4.2945212e-07 0)
(0.0025575179 -4.2021393e-07 0)
(0.0025578538 -4.1520775e-07 0)
(0.0025581856 -4.1535679e-07 0)
(0.002558517 -4.2194841e-07 0)
(0.0025588519 -4.3674998e-07 0)
(0.0025591952 -4.6212101e-07 0)
(0.0025595522 -5.0101734e-07 0)
(0.0025599265 -5.566327e-07 0)
(0.0025603215 -6.3143967e-07 0)
(0.0025607684 -7.2430442e-07 0)
(0.0025612704 -8.1313898e-07 0)
(-0.00015728838 0.0010877177 0)
(-0.00073186927 0.0015995917 0)
(-0.00099619223 0.0012205617 0)
(-0.00092262546 0.00052416055 0)
(-0.00056351311 -0.00018001854 0)
(-1.2394977e-05 -0.00075732148 0)
(0.00064998788 -0.0011700411 0)
(0.0013645634 -0.0014282597 0)
(0.0020910036 -0.0015598284 0)
(0.002802557 -0.0015955522 0)
(0.0034818902 -0.0015629526 0)
(0.0041180513 -0.0014842971 0)
(0.0047044531 -0.0013766029 0)
(0.0052375201 -0.0012523828 0)
(0.0057157995 -0.0011205788 0)
(0.0061393559 -0.00098742218 0)
(0.0065093474 -0.00085714353 0)
(0.0068277179 -0.00073252238 0)
(0.0070969659 -0.00061529908 0)
(0.0073199673 -0.00050647612 0)
(0.0074998373 -0.00040653609 0)
(0.0076398218 -0.00031559806 0)
(0.0077432126 -0.00023352995 0)
(0.0078132805 -0.00016002911 0)
(0.0078532247 -9.4680619e-05 0)
(0.0078661341 -3.6999505e-05 0)
(0.0078549594 1.3538971e-05 0)
(0.0078224909 5.7480365e-05 0)
(0.0077713455 9.5371376e-05 0)
(0.0077039619 0.00012774693 0)
(0.007622598 0.000155122 0)
(0.0075293315 0.00017798617 0)
(0.0074260642 0.00019680028 0)
(0.0073145277 0.00021199448 0)
(0.0071962909 0.00022396739 0)
(0.0070727684 0.00023308618 0)
(0.0069452301 0.00023968722 0)
(0.0068148102 0.00024407716 0)
(0.006682517 0.00024653441 0)
(0.0065492426 0.0002473107 0)
(0.0064157722 0.00024663288 0)
(0.0062827931 0.00024470469 0)
(0.0061509033 0.00024170855 0)
(0.0060206196 0.00023780735 0)
(0.0058923852 0.0002331461 0)
(0.0057665771 0.00022785359 0)
(0.0056435122 0.00022204388 0)
(0.0055234542 0.0002158177 0)
(0.0054066186 0.00020926382 0)
(0.0052931781 0.0002024602 0)
(0.0051832673 0.00019547513 0)
(0.0050769872 0.00018836823 0)
(0.0049744088 0.00018119139 0)
(0.0048755768 0.00017398958 0)
(0.0047805131 0.00016680162 0)
(0.0046892192 0.00015966086 0)
(0.0046016792 0.0001525958 0)
(0.0045178619 0.0001456306 0)
(0.0044377233 0.00013878566 0)
(0.004361208 0.00013207796 0)
(0.0042882512 0.00012552155 0)
(0.0042187802 0.00011912782 0)
(0.0041527158 0.00011290589 0)
(0.0040899732 0.00010686286 0)
(0.0040304633 0.00010100403 0)
(0.0039740938 9.5333198e-05 0)
(0.0039207697 8.9852789e-05 0)
(0.0038703941 8.4564067e-05 0)
(0.0038228691 7.9467284e-05 0)
(0.0037780961 7.4561818e-05 0)
(0.0037359763 6.9846296e-05 0)
(0.0036964113 6.5318703e-05 0)
(0.0036593033 6.097648e-05 0)
(0.0036245557 5.6816607e-05 0)
(0.003592073 5.2835675e-05 0)
(0.0035617612 4.902996e-05 0)
(0.003533528 4.5395471e-05 0)
(0.0035072831 4.1928009e-05 0)
(0.0034829381 3.8623208e-05 0)
(0.0034604068 3.5476577e-05 0)
(0.003439605 3.2483529e-05 0)
(0.003420451 2.9639416e-05 0)
(0.0034028653 2.6939556e-05 0)
(0.0033867709 2.437925e-05 0)
(0.0033720931 2.1953808e-05 0)
(0.0033587595 1.9658563e-05 0)
(0.0033467003 1.7488886e-05 0)
(0.0033358478 1.5440201e-05 0)
(0.003326137 1.3507993e-05 0)
(0.0033175051 1.168782e-05 0)
(0.0033098915 9.975317e-06 0)
(0.003303238 8.3662073e-06 0)
(0.0032974886 6.8563047e-06 0)
(0.0032925897 5.4415186e-06 0)
(0.0032884894 4.1178582e-06 0)
(0.0032851384 2.8814344e-06 0)
(0.0032824892 1.7284624e-06 0)
(0.0032804963 6.5526276e-07 0)
(0.0032791162 -3.4173714e-07 0)
(0.0032783072 -1.266005e-06 0)
(0.0032780297 -2.1209012e-06 0)
(0.0032782456 -2.9096808e-06 0)
(0.0032789187 -3.6354941e-06 0)
(0.0032800144 -4.3013878e-06 0)
(0.0032814998 -4.9103058e-06 0)
(0.0032833436 -5.4650913e-06 0)
(0.0032855159 -5.9684887e-06 0)
(0.0032879883 -6.4231452e-06 0)
(0.003290734 -6.8316129e-06 0)
(0.0032937273 -7.1963507e-06 0)
(0.003296944 -7.5197268e-06 0)
(0.0033003611 -7.8040209e-06 0)
(0.0033039569 -8.0514263e-06 0)
(0.0033077108 -8.2640522e-06 0)
(0.0033116034 -8.4439257e-06 0)
(0.0033156165 -8.5929943e-06 0)
(0.0033197326 -8.7131285e-06 0)
(0.0033239356 -8.8061235e-06 0)
(0.0033282102 -8.873702e-06 0)
(0.0033325421 -8.9175164e-06 0)
(0.0033369177 -8.9391501e-06 0)
(0.0033413246 -8.9401201e-06 0)
(0.003345751 -8.9218785e-06 0)
(0.0033501858 -8.8858152e-06 0)
(0.0033546189 -8.8332593e-06 0)
(0.0033590408 -8.7654815e-06 0)
(0.0033634427 -8.6836951e-06 0)
(0.0033678166 -8.5890586e-06 0)
(0.0033721548 -8.4826762e-06 0)
(0.0033764505 -8.3656005e-06 0)
(0.0033806975 -8.2388339e-06 0)
(0.00338489 -8.1033305e-06 0)
(0.0033890227 -7.9599967e-06 0)
(0.0033930909 -7.8096937e-06 0)
(0.0033970904 -7.6532378e-06 0)
(0.0034010174 -7.4914025e-06 0)
(0.0034048685 -7.3249198e-06 0)
(0.0034086407 -7.1544819e-06 0)
(0.0034123315 -6.9807425e-06 0)
(0.0034159387 -6.8043179e-06 0)
(0.0034194603 -6.6257885e-06 0)
(0.0034228948 -6.4456994e-06 0)
(0.0034262411 -6.2645619e-06 0)
(0.0034294981 -6.082855e-06 0)
(0.0034326651 -5.9010266e-06 0)
(0.0034357417 -5.7194949e-06 0)
(0.0034387278 -5.5386491e-06 0)
(0.0034416233 -5.358851e-06 0)
(0.0034444286 -5.1804349e-06 0)
(0.0034471439 -5.0037102e-06 0)
(0.0034497699 -4.828962e-06 0)
(0.0034523074 -4.6564522e-06 0)
(0.0034547572 -4.4864207e-06 0)
(0.0034571205 -4.319086e-06 0)
(0.0034593985 -4.1546466e-06 0)
(0.0034615923 -3.9932818e-06 0)
(0.0034637035 -3.8351528e-06 0)
(0.0034657335 -3.6804034e-06 0)
(0.0034676839 -3.5291614e-06 0)
(0.0034695564 -3.3815396e-06 0)
(0.0034713528 -3.2376359e-06 0)
(0.0034730747 -3.0975349e-06 0)
(0.0034747242 -2.9613084e-06 0)
(0.003476303 -2.8290165e-06 0)
(0.0034778131 -2.7007085e-06 0)
(0.0034792566 -2.576424e-06 0)
(0.0034806353 -2.4561934e-06 0)
(0.0034819514 -2.3400387e-06 0)
(0.0034832068 -2.2279738e-06 0)
(0.0034844037 -2.1200062e-06 0)
(0.0034855441 -2.0161375e-06 0)
(0.0034866301 -1.9163644e-06 0)
(0.0034876638 -1.8206798e-06 0)
(0.0034886473 -1.7290733e-06 0)
(0.0034895826 -1.6415327e-06 0)
(0.0034904719 -1.5580453e-06 0)
(0.0034913172 -1.478599e-06 0)
(0.0034921207 -1.4031847e-06 0)
(0.0034928844 -1.3317977e-06 0)
(0.0034936104 -1.2644416e-06 0)
(0.0034943008 -1.2011309e-06 0)
(0.0034949577 -1.1418967e-06 0)
(0.0034955833 -1.0867925e-06 0)
(0.0034961797 -1.0359037e-06 0)
(0.0034967492 -9.893586e-07 0)
(0.0034972939 -9.4734488e-07 0)
(0.0034978163 -9.1013002e-07 0)
(0.0034983188 -8.780911e-07 0)
(0.003498804 -8.517529e-07 0)
(0.0034992748 -8.3183856e-07 0)
(0.0034997342 -8.1933291e-07 0)
(0.0035001857 -8.1555574e-07 0)
(0.0035006328 -8.2223851e-07 0)
(0.0035010796 -8.4157219e-07 0)
(0.0035015302 -8.7616425e-07 0)
(0.0035019886 -9.2873807e-07 0)
(0.0035024564 -1.0012407e-06 0)
(0.0035029335 -1.0929492e-06 0)
(0.0035034507 -1.1965339e-06 0)
(0.003504024 -1.2848511e-06 0)
(-0.00017909509 0.0015717297 0)
(-0.00055662345 0.0019238966 0)
(-0.00027818246 0.0011119908 0)
(0.00039238036 7.3122708e-05 0)
(0.0012509587 -0.00084327169 0)
(0.0021660195 -0.0015293818 0)
(0.0030657 -0.0019805651 0)
(0.0039168627 -0.0022341261 0)
(0.0047074206 -0.0023361543 0)
(0.0054347246 -0.0023283535 0)
(0.0060996621 -0.0022445337 0)
(0.0067041572 -0.002110615 0)
(0.007250251 -0.0019458158 0)
(0.0077398665 -0.0017640747 0)
(0.0081748477 -0.0015753325 0)
(0.0085570665 -0.0013865674 0)
(0.008888513 -0.0012025874 0)
(0.0091713483 -0.0010266198 0)
(0.0094079204 -0.00086074504 0)
(0.0096007516 -0.00070621115 0)
(0.0097525089 -0.00056366328 0)
(0.009865964 -0.0004333107 0)
(0.0099439511 -0.00031504944 0)
(0.0099893249 -0.00020855293 0)
(0.010004923 -0.00011333993 0)
(0.0099935305 -2.8825558e-05 0)
(0.0099578564 4.5642835e-05 0)
(0.0099004995 0.00011075986 0)
(0.0098239416 0.00016723127 0)
(0.0097305331 0.00021575889 0)
(0.0096224845 0.00025702853 0)
(0.0095018611 0.00029170121 0)
(0.0093705811 0.00032040692 0)
(0.0092304158 0.00034374058 0)
(0.0090829921 0.00036225953 0)
(0.0089297966 0.0003764824 0)
(0.008772181 0.00038688892 0)
(0.0086113677 0.00039392054 0)
(0.0084484572 0.00039798157 0)
(0.0082844351 0.00039944077 0)
(0.008120179 0.00039863317 0)
(0.0079564667 0.00039586208 0)
(0.0077939829 0.00039140121 0)
(0.0076333266 0.00038549682 0)
(0.007475018 0.00037836977 0)
(0.0073195054 0.00037021764 0)
(0.0071671711 0.00036121666 0)
(0.0070183376 0.0003515236 0)
(0.0068732733 0.00034127755 0)
(0.0067321976 0.00033060153 0)
(0.0065952859 0.00031960405 0)
(0.0064626742 0.00030838054 0)
(0.0063344628 0.0002970146 0)
(0.006210721 0.00028557924 0)
(0.0060914898 0.00027413795 0)
(0.0059767857 0.00026274571 0)
(0.0058666034 0.00025144986 0)
(0.0057609186 0.00024029097 0)
(0.0056596905 0.00022930351 0)
(0.0055628637 0.0002185166 0)
(0.0054703708 0.00020795453 0)
(0.0053821335 0.00019763738 0)
(0.0052980649 0.00018758145 0)
(0.0052180704 0.00017779975 0)
(0.0051420495 0.00016830234 0)
(0.0050698966 0.00015909672 0)
(0.0050015022 0.00015018814 0)
(0.004936754 0.00014157987 0)
(0.0048755374 0.00013327348 0)
(0.0048177364 0.00012526901 0)
(0.0047632343 0.00011756523 0)
(0.0047119142 0.00011015979 0)
(0.0046636596 0.00010304938 0)
(0.0046183545 9.6229875e-05 0)
(0.0045758842 8.9696453e-05 0)
(0.0045361354 8.3443714e-05 0)
(0.0044989966 7.7465775e-05 0)
(0.004464358 7.1756354e-05 0)
(0.0044321123 6.6308851e-05 0)
(0.0044021543 6.1116412e-05 0)
(0.0043743813 5.6171989e-05 0)
(0.0043486932 5.1468396e-05 0)
(0.0043249925 4.699835e-05 0)
(0.0043031844 4.2754512e-05 0)
(0.0042831771 3.8729526e-05 0)
(0.0042648813 3.4916044e-05 0)
(0.0042482107 3.1306759e-05 0)
(0.0042330817 2.7894423e-05 0)
(0.0042194136 2.4671867e-05 0)
(0.0042071285 2.1632022e-05 0)
(0.0041961511 1.876793e-05 0)
(0.0041864092 1.6072758e-05 0)
(0.0041778328 1.3539806e-05 0)
(0.004170355 1.1162519e-05 0)
(0.0041639113 8.93449e-06 0)
(0.0041584398 6.8494694e-06 0)
(0.004153881 4.9013662e-06 0)
(0.0041501779 3.0842523e-06 0)
(0.004147276 1.3923643e-06 0)
(0.004145123 -1.7989456e-07 0)
(0.0041436688 -1.6379552e-06 0)
(0.0041428657 -2.9870824e-06 0)
(0.0041426678 -4.232375e-06 0)
(0.0041430316 -5.3787696e-06 0)
(0.0041439154 -6.4310397e-06 0)
(0.0041452796 -7.3937991e-06 0)
(0.0041470863 -8.2715044e-06 0)
(0.0041492996 -9.0684574e-06 0)
(0.0041518851 -9.7888083e-06 0)
(0.0041548105 -1.0436559e-05 0)
(0.0041580446 -1.1015565e-05 0)
(0.0041615583 -1.1529541e-05 0)
(0.0041653238 -1.1982065e-05 0)
(0.0041693147 -1.2376576e-05 0)
(0.0041735061 -1.2716384e-05 0)
(0.0041778745 -1.3004671e-05 0)
(0.0041823976 -1.3244496e-05 0)
(0.0041870546 -1.3438794e-05 0)
(0.0041918256 -1.3590386e-05 0)
(0.0041966921 -1.3701977e-05 0)