/*--------------------------------*- C++ -*----------------------------------*\
| =========                 |                                                 |
| \\      /  F ield         | OpenFOAM: The Open Source CFD Toolbox           |
|  \\    /   O peration     | Version:  2406                                  |
|   \\  /    A nd           | Website:  www.openfoam.com                      |
|    \\/     M anipulation  |                                                 |
\*---------------------------------------------------------------------------*/
FoamFile
{
    version     2.0;
    format      ascii;
    arch        "LSB;label=32;scalar=64";
    class       surfaceScalarField;
    location    "1460";
    object      phi;
}
// * * * * * * * * * * * * * * * * * * * * * * * * * * * * * * * * * * * * * //

dimensions      [0 3 -1 0 0 0 0];

oriented        oriented;

internalField   nonuniform List<scalar> 
21745
(
-7.2357617e-14
7.2357617e-14
-1.6824735e-13
9.5889733e-14
-2.2601945e-13
5.7772098e-14
-2.3022059e-13
4.2011438e-15
-1.9059074e-13
-3.9629852e-14
-1.238404e-13
-6.6750336e-14
-4.5269542e-14
-7.857086e-14
3.404782e-14
-7.9317362e-14
1.072977e-13
-7.3249883e-14
1.7099543e-13
-6.3697728e-14
2.2391277e-13
-5.2917343e-14
2.6619209e-13
-4.2279319e-14
2.9871708e-13
-3.2524984e-14
3.227053e-13
-2.3988224e-14
3.3946349e-13
-1.6758185e-14
3.5025162e-13
-1.0788134e-14
3.5621528e-13
-5.9636588e-15
3.5835841e-13
-2.1431351e-15
3.5753895e-13
8.1946634e-16
3.5447614e-13
3.0628084e-15
3.4976428e-13
4.711855e-15
3.4388817e-13
5.8761175e-15
3.3723842e-13
6.649744e-15
3.301259e-13
7.1125182e-15
3.2279462e-13
7.3312857e-15
3.1543311e-13
7.3615084e-15
3.0818432e-13
7.2487927e-15
3.01154e-13
7.0303155e-15
2.9441789e-13
6.7361132e-15
2.8802767e-13
6.3902216e-15
2.82016e-13
6.0116712e-15
2.7640065e-13
5.6153444e-15
2.7118794e-13
5.2127099e-15
2.663755e-13
4.8124448e-15
2.6195454e-13
4.4209608e-15
2.5791169e-13
4.0428449e-15
2.5423046e-13
3.6812275e-15
2.5089237e-13
3.338089e-15
2.4787786e-13
3.014512e-15
2.4516697e-13
2.7108897e-15
2.4273988e-13
2.4270961e-15
2.4057725e-13
2.1626236e-15
2.3866056e-13
1.9166949e-15
2.3697221e-13
1.6883521e-15
2.3549568e-13
1.4765265e-15
2.3421559e-13
1.2800943e-15
2.3311767e-13
1.0979181e-15
2.3218879e-13
9.2887882e-16
2.3141689e-13
7.7189879e-16
2.3079093e-13
6.259578e-16
2.3030083e-13
4.9010364e-16
2.2993737e-13
3.6345823e-16
2.2969215e-13
2.4522028e-16
2.2955748e-13
1.3466534e-16
2.2952634e-13
3.1143758e-17
2.2959226e-13
-6.5922785e-17
2.2974931e-13
-1.5704628e-16
2.2999199e-13
-2.4267703e-16
2.303152e-13
-3.2320904e-16
2.3071418e-13
-3.9898548e-16
2.3118449e-13
-4.703043e-16
2.3172191e-13
-5.374236e-16
2.3232248e-13
-6.0056668e-16
2.329824e-13
-6.5992677e-16
2.3369807e-13
-7.1567132e-16
2.3446602e-13
-7.6794599e-16
2.352829e-13
-8.1687824e-16
2.3614548e-13
-8.6258051e-16
2.3705063e-13
-9.051531e-16
2.3799532e-13
-9.4468664e-16
2.3897658e-13
-9.8126426e-16
2.3999155e-13
-1.0149634e-15
2.410374e-13
-1.0458575e-15
2.4211142e-13
-1.0740173e-15
2.4321093e-13
-1.0995116e-15
2.4433334e-13
-1.1224086e-15
2.4547612e-13
-1.1427765e-15
2.466368e-13
-1.1606838e-15
2.47813e-13
-1.1761997e-15
2.490024e-13
-1.1893947e-15
2.5020274e-13
-1.2003406e-15
2.5141185e-13
-1.2091104e-15
2.5262763e-13
-1.2157784e-15
2.5384805e-13
-1.2204205e-15
2.5507116e-13
-1.2231136e-15
2.562951e-13
-1.2239356e-15
2.5751806e-13
-1.2229656e-15
2.5873834e-13
-1.2202831e-15
2.5995431e-13
-1.2159682e-15
2.6116441e-13
-1.2101015e-15
2.6236718e-13
-1.2027633e-15
2.6356121e-13
-1.194034e-15
2.6474521e-13
-1.1839936e-15
2.6591793e-13
-1.1727215e-15
2.6707822e-13
-1.1602962e-15
2.6822502e-13
-1.1467953e-15
2.6935732e-13
-1.1322952e-15
2.7047419e-13
-1.1168709e-15
2.7157478e-13
-1.1005959e-15
2.7265833e-13
-1.0835421e-15
2.737241e-13
-1.0657796e-15
2.7477148e-13
-1.0473765e-15
2.7579988e-13
-1.0283989e-15
2.7680879e-13
-1.0089108e-15
2.7779777e-13
-9.8897401e-16
2.7876641e-13
-9.6864817e-16
2.7971441e-13
-9.4799052e-16
2.8064146e-13
-9.2705598e-16
2.8154736e-13
-9.0589708e-16
2.8243192e-13
-8.84564e-16
2.8329503e-13
-8.6310451e-16
2.8413659e-13
-8.4156396e-16
2.8495658e-13
-8.1998538e-16
2.8575499e-13
-7.984094e-16
2.8653186e-13
-7.7687433e-16
2.8728728e-13
-7.5541617e-16
2.8802135e-13
-7.3406868e-16
2.8873421e-13
-7.1286337e-16
2.8942604e-13
-6.9182967e-16
2.9009704e-13
-6.7099483e-16
2.9074742e-13
-6.5038411e-16
2.9137744e-13
-6.3002076e-16
2.9198737e-13
-6.0992609e-16
2.9257749e-13
-5.9011955e-16
2.9314811e-13
-5.7061885e-16
2.9369955e-13
-5.5143993e-16
2.9423215e-13
-5.3259716e-16
2.9474625e-13
-5.1410327e-16
2.9524222e-13
-4.9596953e-16
2.9572043e-13
-4.7820574e-16
2.9618125e-13
-4.6082036e-16
2.9662507e-13
-4.4382055e-16
2.9705229e-13
-4.2721227e-16
2.9746329e-13
-4.1100032e-16
2.9785848e-13
-3.9518841e-16
2.9823826e-13
-3.7977919e-16
2.9860303e-13
-3.6477441e-16
2.9895321e-13
-3.5017486e-16
2.9928919e-13
-3.359806e-16
2.9961138e-13
-3.2219082e-16
2.9992019e-13
-3.0880408e-16
3.0021601e-13
-2.958182e-16
3.0049924e-13
-2.8323039e-16
3.0077028e-13
-2.710373e-16
3.0102951e-13
-2.592351e-16
3.0127733e-13
-2.4781944e-16
3.0151412e-13
-2.3678564e-16
3.0174025e-13
-2.261286e-16
3.0195609e-13
-2.1584288e-16
3.0216202e-13
-2.0592269e-16
3.0235838e-13
-1.9636208e-16
3.0254554e-13
-1.8715476e-16
3.0272383e-13
-1.7829441e-16
3.0289361e-13
-1.6977443e-16
3.030552e-13
-1.6158812e-16
3.0320893e-13
-1.5372868e-16
3.0335512e-13
-1.4618919e-16
3.0349408e-13
-1.3896276e-16
3.0362613e-13
-1.3204239e-16
3.0375155e-13
-1.2542118e-16
3.0387064e-13
-1.1909216e-16
3.0398369e-13
-1.130485e-16
3.0409098e-13
-1.0728334e-16
3.0419277e-13
-1.0178993e-16
3.0428933e-13
-9.6561711e-17
3.0438093e-13
-9.159211e-17
3.0446781e-13
-8.6874885e-17
3.0455021e-13
-8.2403819e-17
3.0462839e-13
-7.8172883e-17
3.0470257e-13
-7.417623e-17
3.0477298e-13
-7.0408296e-17
3.0483984e-13
-6.6863706e-17
3.0490338e-13
-6.3537548e-17
3.0496381e-13
-6.0425127e-17
3.0502134e-13
-5.7522068e-17
3.0507616e-13
-5.4824532e-17
3.0512849e-13
-5.2328994e-17
3.0517853e-13
-5.0032731e-17
3.0522647e-13
-4.7933584e-17
3.052725e-13
-4.6030372e-17
3.0531682e-13
-4.4323097e-17
3.0535964e-13
-4.2813125e-17
3.0540115e-13
-4.1503976e-17
3.0544155e-13
-4.0401685e-17
3.0548107e-13
-3.9515897e-17
3.0551994e-13
-3.886157e-17
3.055584e-13
-3.8461266e-17
3.0559676e-13
-3.8348719e-17
3.0563534e-13
-3.8574527e-17
3.0567456e-13
-3.9214569e-17
3.0571494e-13
-4.0383222e-17
3.0575721e-13
-4.2255814e-17
3.0580231e-13
-4.5102866e-17
3.0585167e-13
-4.9348602e-17
3.0590734e-13
-5.5667884e-17
3.0597249e-13
-6.5140397e-17
3.060519e-13
-7.9398519e-17
3.061527e-13
-1.0079442e-16
3.0628755e-13
-1.3484886e-16
-1.8679492e-16
-1.4027393e-13
2.1263155e-13
-2.990098e-13
2.546256e-13
-3.6514416e-13
1.2390646e-13
-3.2476473e-13
-3.6178285e-14
-2.030891e-13
-1.6130549e-13
-3.4282949e-14
-2.3555648e-13
1.5218043e-13
-2.6503424e-13
3.3547533e-13
-2.6261226e-13
5.0294419e-13
-2.4071874e-13
6.4813328e-13
-2.0888682e-13
7.687977e-13
-1.7358176e-13
8.6530512e-13
-1.3878674e-13
9.394944e-13
-1.0671427e-13
9.9391847e-13
-7.8412289e-14
1.0313708e-12
-5.4210468e-14
1.0546058e-12
-3.4023192e-14
1.0661864e-12
-1.7544251e-14
1.0684099e-12
-4.366593e-15
1.0632825e-12
5.9468689e-15
1.0525218e-12
1.3823512e-14
1.0375751e-12
1.9658461e-14
1.0196454e-12
2.3805892e-14
9.9971873e-13
2.6576385e-14
9.7859335e-13
2.8237904e-14
9.5690596e-13
2.9018669e-14
9.3515656e-13
2.9110913e-14
9.1373041e-13
2.8674943e-14
8.9291756e-13
2.7843167e-14
8.7292976e-13
2.6723914e-14
8.5391506e-13
2.5404922e-14
8.3597023e-13
2.3956492e-14
8.1915131e-13
2.2434265e-14
8.0348237e-13
2.0881655e-14
7.8896286e-13
1.9331958e-14
7.7557366e-13
1.7810157e-14
7.6328204e-13
1.6334468e-14
7.5204562e-13
1.491764e-14
7.4181565e-13
1.356806e-14
7.325395e-13
1.2290667e-14
7.2416267e-13
1.1087721e-14
7.1663033e-13
9.9594287e-15
7.0988849e-13
8.9044689e-15
7.0388477e-13
7.9204089e-15
6.9856908e-13
7.0040475e-15
6.9389392e-13
6.1516865e-15
6.8981467e-13
5.3593459e-15
6.8628966e-13
4.6229304e-15
6.8328018e-13
3.9383565e-15
6.8075043e-13
3.3016477e-15
6.7866738e-13
2.7090019e-15
6.7700065e-13
2.156838e-15
6.7572228e-13
1.641825e-15
6.7480661e-13
1.1608977e-15
6.7423001e-13
7.1126096e-16
6.7397077e-13
2.9038703e-16
6.7400884e-13
-1.0399412e-16
6.743257e-13
-4.7390967e-16
6.7490418e-13
-8.2115965e-16
6.7572831e-13
-1.1473352e-15
6.7678316e-13
-1.4538367e-15
6.7805475e-13
-1.7418938e-15
6.7952991e-13
-2.0125838e-15
6.8119619e-13
-2.2668503e-15
6.8304179e-13
-2.5055195e-15
6.8505543e-13
-2.7293169e-15
6.8722637e-13
-2.9388809e-15
6.8954427e-13
-3.1347768e-15
6.9199919e-13
-3.3175083e-15
6.9458157e-13
-3.4875285e-15
6.9728213e-13
-3.6452491e-15
7.0009192e-13
-3.7910488e-15
7.0300223e-13
-3.9252802e-15
7.0600465e-13
-4.0482762e-15
7.0909099e-13
-4.1603549e-15
7.122533e-13
-4.261824e-15
7.1548388e-13
-4.3529845e-15
7.1877524e-13
-4.434133e-15
7.2212012e-13
-4.5055648e-15
7.2551149e-13
-4.5675749e-15
7.2894256e-13
-4.6204596e-15
7.3240673e-13
-4.6645171e-15
7.3589767e-13
-4.7000485e-15
7.3940925e-13
-4.7273574e-15
7.4293558e-13
-4.7467506e-15
7.4647101e-13
-4.7585373e-15
7.500101e-13
-4.763029e-15
7.5354767e-13
-4.7605392e-15
7.5707877e-13
-4.7513825e-15
7.6059868e-13
-4.7358742e-15
7.6410291e-13
-4.7143295e-15
7.6758721e-13
-4.6870629e-15
7.7104756e-13
-4.6543873e-15
7.7448018e-13
-4.6166133e-15
7.7788151e-13
-4.5740487e-15
7.8124821e-13
-4.5269977e-15
7.8457717e-13
-4.4757598e-15
7.8786551e-13
-4.4206299e-15
7.9111054e-13
-4.3618972e-15
7.9430978e-13
-4.2998448e-15
7.9746099e-13
-4.2347493e-15
8.0056209e-13
-4.16688e-15
8.0361122e-13
-4.0964989e-15
8.0660668e-13
-4.0238602e-15
8.0954698e-13
-3.9492098e-15
8.1243079e-13
-3.8727852e-15
8.1525696e-13
-3.7948154e-15
8.1802449e-13
-3.7155204e-15
8.2073254e-13
-3.6351115e-15
8.2338044e-13
-3.5537906e-15
8.2596762e-13
-3.4717508e-15
8.2849369e-13
-3.389176e-15
8.3095837e-13
-3.3062411e-15
8.333615e-13
-3.2231118e-15
8.3570304e-13
-3.1399449e-15
8.3798305e-13
-3.0568884e-15
8.4020172e-13
-2.9740815e-15
8.423593e-13
-2.8916549e-15
8.4445617e-13
-2.8097308e-15
8.4649277e-13
-2.7284233e-15
8.4846961e-13
-2.6478386e-15
8.503873e-13
-2.5680748e-15
8.522465e-13
-2.4892228e-15
8.5404794e-13
-2.4113658e-15
8.5579241e-13
-2.3345803e-15
8.5748072e-13
-2.2589358e-15
8.5911378e-13
-2.1844952e-15
8.606925e-13
-2.1113154e-15
8.6221784e-13
-2.0394469e-15
8.6369081e-13
-1.9689348e-15
8.6511242e-13
-1.8998185e-15
8.6648374e-13
-1.8321322e-15
8.6780582e-13
-1.7659053e-15
8.6907977e-13
-1.7011622e-15
8.703067e-13
-1.6379232e-15
8.7148771e-13
-1.5762043e-15
8.7262395e-13
-1.5160173e-15
8.7371655e-13
-1.4573706e-15
8.7476665e-13
-1.400269e-15
8.7577538e-13
-1.3447142e-15
8.767439e-13
-1.2907048e-15
8.7767333e-13
-1.2382365e-15
8.7856482e-13
-1.1873027e-15
8.7941948e-13
-1.1378939e-15
8.8023845e-13
-1.0899988e-15
8.8102282e-13
-1.0436039e-15
8.8177369e-13
-9.9869405e-16
8.8249216e-13
-9.5525224e-16
8.8317929e-13
-9.132601e-16
8.8383615e-13
-8.7269784e-16
8.8446377e-13
-8.3354441e-16
8.8506319e-13
-7.957778e-16
8.8563541e-13
-7.593751e-16
8.8618143e-13
-7.2431262e-16
8.8670223e-13
-6.9056596e-16
8.8719875e-13
-6.5811019e-16
8.8767194e-13
-6.2691986e-16
8.8812273e-13
-5.9696921e-16
8.88552e-13
-5.6823227e-16
8.8896064e-13
-5.4068293e-16
8.8934952e-13
-5.1429504e-16
8.8971947e-13
-4.8904249e-16
8.9007132e-13
-4.6489927e-16
8.9040588e-13
-4.4183957e-16
8.9072393e-13
-4.1983785e-16
8.9102624e-13
-3.9886898e-16
8.9131356e-13
-3.789083e-16
8.9158662e-13
-3.5993168e-16
8.9184613e-13
-3.4191548e-16
8.920928e-13
-3.2483672e-16
8.923273e-13
-3.0867304e-16
8.925503e-13
-2.9340312e-16
8.9276244e-13
-2.7900657e-16
8.9296437e-13
-2.654642e-16
8.9315671e-13
-2.5275794e-16
8.9334006e-13
-2.4087109e-16
8.9351503e-13
-2.2978852e-16
8.936822e-13
-2.1949704e-16
8.9384216e-13
-2.0998574e-16
8.9399547e-13
-2.0124647e-16
8.9414272e-13
-1.9327446e-16
8.9428447e-13
-1.860694e-16
8.944213e-13
-1.7963651e-16
8.9455379e-13
-1.7398842e-16
8.9468254e-13
-1.6914739e-16
8.9480818e-13
-1.6514909e-16
8.9493137e-13
-1.620477e-16
8.9505284e-13
-1.5992398e-16
8.9517339e-13
-1.5889627e-16
8.9529396e-13
-1.5913708e-16
8.9541565e-13
-1.6089689e-16
8.9553981e-13
-1.6453976e-16
8.9566816e-13
-1.7059455e-16
8.9580289e-13
-1.7982915e-16
8.959469e-13
-1.9335315e-16
8.96104e-13
-2.1275382e-16
8.962791e-13
-2.4022996e-16
8.9647826e-13
-2.7855282e-16
8.9670825e-13
-3.3077555e-16
8.9697325e-13
-3.9984871e-16
-4.7618297e-16
-1.5939788e-13
3.7202943e-13
-2.7811105e-13
3.7333877e-13
-2.5272206e-13
9.8517472e-14
-1.0422102e-13
-1.8467933e-13
1.2042704e-13
-3.8595354e-13
3.7849995e-13
-4.936294e-13
6.3911335e-13
-5.2564763e-13
8.8290161e-13
-5.0640052e-13
1.0992138e-12
-4.5703092e-13
1.2833411e-12
-3.9301416e-13
1.4343815e-12
-3.2462208e-13
1.5537356e-12
-2.5814091e-13
1.644094e-12
-1.9707268e-13
1.7087727e-12
-1.4309098e-13
1.7512896e-12
-9.6727372e-14
1.7751026e-12
-5.7836133e-14
1.7834552e-12
-2.5896918e-14
1.7792944e-12
-2.0575668e-16
1.7652326e-12
2.0008618e-14
1.7435435e-12
3.551265e-14
1.7161735e-12
4.702844e-14
1.684765e-12
5.5214456e-14
1.6506839e-12
6.0657423e-14
1.6150508e-12
6.3871077e-14
1.5787705e-12
6.5298922e-14
1.5425622e-12
6.5319223e-14
1.5069861e-12
6.4251082e-14
1.4724683e-12
6.2360914e-14
1.4393233e-12
5.9868876e-14
1.4077733e-12
5.6954991e-14
1.3779649e-12
5.3764817e-14
1.3499846e-12
5.0414592e-14
1.3238705e-12
4.6995823e-14
1.2996231e-12
4.3579338e-14
1.2772144e-12
4.0218819e-14
1.256595e-12
3.6953854e-14
1.2377001e-12
3.3812557e-14
1.2204544e-12
3.0813799e-14
1.2047759e-12
2.7969089e-14
1.1905795e-12
2.5284157e-14
1.1777787e-12
2.2760272e-14
1.1662878e-12
2.0395329e-14
1.1560235e-12
1.818475e-14
1.1469053e-12
1.6122205e-14
1.1388568e-12
1.4200199e-14
1.1318056e-12
1.2410542e-14
1.1256838e-12
1.0744707e-14
1.1204281e-12
9.1941198e-15
1.1159793e-12
7.7503622e-15
1.112283e-12
6.4053325e-15
1.1092885e-12
5.1513512e-15
1.1069491e-12
3.9812318e-15
1.1052217e-12
2.8883214e-15
1.1040664e-12
1.8665182e-15
1.1034465e-12
9.1026974e-16
1.103328e-12
1.4559098e-17
1.1036792e-12
-8.2512137e-16
1.1044708e-12
-1.6128018e-15
1.1056756e-12
-2.3520694e-15
1.1072678e-12
-3.0461051e-15
1.1092237e-12
-3.6977227e-15
1.1115205e-12
-4.3094078e-15
1.114137e-12
-4.8833544e-15
1.117053e-12
-5.4215003e-15
1.1202492e-12
-5.9255602e-15
1.1237074e-12
-6.3970558e-15
1.12741e-12
-6.837344e-15
1.1313401e-12
-7.2476426e-15
1.1354816e-12
-7.6290524e-15
1.1398189e-12
-7.9825778e-15
1.144337e-12
-8.3091444e-15
1.1490214e-12
-8.6096146e-15
1.1538579e-12
-8.8848008e-15
1.158833e-12
-9.1354765e-15
1.1639336e-12
-9.3623863e-15
1.1691469e-12
-9.5662536e-15
1.1744605e-12
-9.7477868e-15
1.1798626e-12
-9.907685e-15
1.1853417e-12
-1.0046642e-14
1.1908866e-12
-1.0165348e-14
1.1964866e-12
-1.0264494e-14
1.2021313e-12
-1.0344772e-14
1.2078108e-12
-1.0406876e-14
1.2135156e-12
-1.0451504e-14
1.2192364e-12
-1.0479352e-14
1.2249645e-12
-1.0491122e-14
1.2306914e-12
-1.0487516e-14
1.2364093e-12
-1.0469235e-14
1.2421104e-12
-1.043698e-14
1.2477875e-12
-1.039145e-14
1.2534338e-12
-1.0333339e-14
1.2590427e-12
-1.0263338e-14
1.2646083e-12
-1.018213e-14
1.2701246e-12
-1.0090391e-14
1.2755864e-12
-9.9887875e-15
1.2809886e-12
-9.8779767e-15
1.2863266e-12
-9.7586031e-15
1.291596e-12
-9.6312988e-15
1.2967928e-12
-9.4966821e-15
1.3019134e-12
-9.3553562e-15
1.3069545e-12
-9.2079088e-15
1.3119129e-12
-9.0549111e-15
1.3167859e-12
-8.8969168e-15
1.3215712e-12
-8.7344618e-15
1.3262665e-12
-8.5680636e-15
1.3308699e-12
-8.398221e-15
1.3353798e-12
-8.2254134e-15
1.3397947e-12
-8.0501009e-15
1.3441137e-12
-7.872724e-15
1.3483356e-12
-7.6937035e-15
1.3524599e-12
-7.5134403e-15
1.356486e-12
-7.3323161e-15
1.3604136e-12
-7.1506926e-15
1.3642425e-12
-6.9689124e-15
1.3679729e-12
-6.787299e-15
1.371605e-12
-6.6061569e-15
1.3751391e-12
-6.4257721e-15
1.3785758e-12
-6.2464126e-15
1.3819157e-12
-6.0683287e-15
1.3851596e-12
-5.8917532e-15
1.3883085e-12
-5.7169024e-15
1.3913632e-12
-5.5439761e-15
1.394325e-12
-5.3731581e-15
1.397195e-12
-5.2046171e-15
1.3999746e-12
-5.0385072e-15
1.4026651e-12
-4.8749682e-15
1.4052679e-12
-4.7141261e-15
1.4077845e-12
-4.5560943e-15
1.4102166e-12
-4.4009732e-15
1.4125656e-12
-4.2488517e-15
1.4148333e-12
-4.099807e-15
1.4170213e-12
-3.9539058e-15
1.4191313e-12
-3.8112046e-15
1.4211652e-12
-3.6717499e-15
1.4231245e-12
-3.5355794e-15
1.4250112e-12
-3.4027218e-15
1.4268271e-12
-3.273198e-15
1.4285738e-12
-3.1470213e-15
1.4302533e-12
-3.0241978e-15
1.4318673e-12
-2.9047271e-15
1.4334177e-12
-2.7886024e-15
1.4349062e-12
-2.6758115e-15
1.4363347e-12
-2.5663365e-15
1.4377048e-12
-2.4601549e-15
1.4390185e-12
-2.3572395e-15
1.4402773e-12
-2.2575595e-15
1.4414831e-12
-2.1610799e-15
1.4426376e-12
-2.0677627e-15
1.4437425e-12
-1.9775665e-15
1.4447994e-12
-1.8904475e-15
1.44581e-12
-1.8063594e-15
1.4467759e-12
-1.7252538e-15
1.4476987e-12
-1.6470806e-15
1.4485799e-12
-1.5717882e-15
1.4494211e-12
-1.4993234e-15
1.4502238e-12
-1.4296322e-15
1.4509895e-12
-1.3626597e-15
1.4517196e-12
-1.2983504e-15
1.4524156e-12
-1.2366483e-15
1.4530788e-12
-1.1774974e-15
1.4537106e-12
-1.1208417e-15
1.4543123e-12
-1.0666253e-15
1.4548853e-12
-1.0147925e-15
1.4554307e-12
-9.6528834e-16
1.4559499e-12
-9.1805858e-16
1.4564441e-12
-8.7304989e-16
1.4569143e-12
-8.3020989e-16
1.4573619e-12
-7.894874e-16
1.4577879e-12
-7.5083248e-16
1.4581934e-12
-7.1419679e-16
1.4585796e-12
-6.7953382e-16
1.4589474e-12
-6.4679924e-16
1.4592978e-12
-6.1595093e-16
1.459632e-12
-5.8694935e-16
1.4599509e-12
-5.5975788e-16
1.4602555e-12
-5.3434325e-16
1.4605467e-12
-5.1067636e-16
1.4608254e-12
-4.887329e-16
1.4610927e-12
-4.6849435e-16
1.4613493e-12
-4.4994952e-16
1.4615964e-12
-4.3309625e-16
1.4618347e-12
-4.1794413e-16
1.4620652e-12
-4.0451767e-16
1.4622889e-12
-3.9286133e-16
1.4625068e-12
-3.8304619e-16
1.46272e-12
-3.7518006e-16
1.4629295e-12
-3.6942128e-16
1.4631366e-12
-3.6599856e-16
1.4633427e-12
-3.6523805e-16
1.4635494e-12
-3.6760157e-16
1.4637586e-12
-3.7373839e-16
1.4639726e-12
-3.8455367e-16
1.464194e-12
-4.0129272e-16
1.4644263e-12
-4.2563152e-16
1.4646733e-12
-4.5973963e-16
1.4649393e-12
-5.0621244e-16
1.4652283e-12
-5.6760083e-16
1.4655427e-12
-6.4517516e-16
1.4658789e-12
-7.3601481e-16
-8.1992226e-16
-1.2922311e-13
5.0125254e-13
-9.4500079e-14
3.3861574e-13
1.2946976e-13
-1.2545236e-13
4.4821173e-13
-5.0342131e-13
7.9258012e-13
-7.3032193e-13
1.1243808e-12
-8.2543011e-13
1.4249824e-12
-8.2624923e-13
1.6868445e-12
-7.6826264e-13
1.9081286e-12
-6.7831502e-13
2.0898217e-12
-5.7470718e-13
2.2343496e-12
-4.6915006e-13
2.3448915e-12
-3.6868277e-13
2.4250024e-12
-2.7718359e-13
2.4783785e-12
-1.9646703e-13
2.5086935e-12
-1.2704245e-13
2.5194821e-12
-6.8624658e-14
2.5140563e-12
-2.0471175e-14
2.4954514e-12
1.8399205e-14
2.4663949e-12
4.9065119e-14
2.4292982e-12
7.2609266e-14
2.3862592e-12
9.006747e-14
2.3390747e-12
1.0239896e-13
2.2892609e-12
1.1047124e-13
2.2380774e-12
1.1505457e-13
2.1865537e-12
1.1682261e-13
2.1355161e-12
1.1635682e-13
2.085614e-12
1.1415317e-13
2.037345e-12
1.1063e-13
1.9910775e-12
1.0613628e-13
1.9470726e-12
1.009599e-13
1.9055019e-12
9.5335561e-14
1.8664643e-12
8.9452173e-14
1.8300005e-12
8.3459589e-14
1.7961052e-12
7.7474673e-14
1.7647373e-12
7.1586684e-14
1.7358292e-12
6.5861997e-14
1.7092936e-12
6.0348205e-14
1.6850297e-12
5.507765e-14
1.6629284e-12
5.0070439e-14
1.6428755e-12
4.5337001e-14
1.6247556e-12
4.0880229e-14
1.6084536e-12
3.6697278e-14
1.5938573e-12
3.2781036e-14
1.5808582e-12
2.9121341e-14
1.5693524e-12
2.5705964e-14
1.5592416e-12
2.2521389e-14
1.5504328e-12
1.9553442e-14
1.5428392e-12
1.6787768e-14
1.5363794e-12
1.42102e-14
1.5309777e-12
1.180703e-14
1.5265638e-12
9.5651974e-15
1.5230726e-12
7.4724239e-15
1.5204437e-12
5.5172863e-15
1.5186209e-12
3.6892564e-15
1.5175525e-12
1.9787063e-15
1.5171901e-12
3.7689138e-16
1.5174891e-12
-1.1240866e-15
1.5184076e-12
-2.5313292e-15
1.5199068e-12
-3.851195e-15
1.52195e-12
-5.0893569e-15
1.5245032e-12
-6.2508661e-15
1.527534e-12
-7.3402134e-15
1.531012e-12
-8.3613901e-15
1.5349084e-12
-9.3179453e-15
1.5391959e-12
-1.021304e-14
1.5438484e-12
-1.1049499e-14
1.5488409e-12
-1.1829857e-14
1.5541496e-12
-1.2556398e-14
1.5597518e-12
-1.3231199e-14
1.5656254e-12
-1.3856161e-14
1.5717493e-12
-1.4433039e-14
1.5781031e-12
-1.496347e-14
1.5846673e-12
-1.5448993e-14
1.5914229e-12
-1.5891072e-14
1.5983516e-12
-1.629111e-14
1.6054358e-12
-1.6650464e-14
1.6126585e-12
-1.6970456e-14
1.6200032e-12
-1.7252384e-14
1.6274541e-12
-1.7497527e-14
1.6349959e-12
-1.770715e-14
1.6426139e-12
-1.7882514e-14
1.650294e-12
-1.8024871e-14
1.6580226e-12
-1.8135472e-14
1.6657867e-12
-1.8215567e-14
1.6735737e-12
-1.8266401e-14
1.6813718e-12
-1.828922e-14
1.6891696e-12
-1.8285266e-14
1.6969561e-12
-1.8255777e-14
1.7047211e-12
-1.8201984e-14
1.7124548e-12
-1.8125114e-14
1.7201478e-12
-1.8026381e-14
1.7277915e-12
-1.790699e-14
1.7353775e-12
-1.7768132e-14
1.7428981e-12
-1.7610981e-14
1.750346e-12
-1.7436695e-14
1.7577144e-12
-1.7246413e-14
1.7649971e-12
-1.7041251e-14
1.7721881e-12
-1.6822303e-14
1.779282e-12
-1.6590637e-14
1.786274e-12
-1.6347295e-14
1.7931593e-12
-1.6093291e-14
1.799934e-12
-1.5829612e-14
1.8065943e-12
-1.5557211e-14
1.8131369e-12
-1.5277014e-14
1.8195587e-12
-1.4989911e-14
1.8258573e-12
-1.4696763e-14
1.8320303e-12
-1.4398396e-14
1.8380758e-12
-1.4095603e-14
1.8439922e-12
-1.3789142e-14
1.8497782e-12
-1.347974e-14
1.8554329e-12
-1.3168089e-14
1.8609554e-12
-1.2854846e-14
1.8663453e-12
-1.2540635e-14
1.8716025e-12
-1.2226049e-14
1.8767268e-12
-1.1911646e-14
1.8817186e-12
-1.1597952e-14
1.8865783e-12
-1.1285462e-14
1.8913065e-12
-1.0974641e-14
1.8959041e-12
-1.0665921e-14
1.9003721e-12
-1.0359707e-14
1.9047116e-12
-1.0056375e-14
1.9089238e-12
-9.75627e-15
1.9130104e-12
-9.4597141e-15
1.9169728e-12
-9.1670008e-15
1.9208127e-12
-8.8783989e-15
1.9245319e-12
-8.5941532e-15
1.9281322e-12
-8.3144848e-15
1.9316157e-12
-8.0395926e-15
1.9349844e-12
-7.769654e-15
1.9382404e-12
-7.504826e-15
1.9413858e-12
-7.2452459e-15
1.9444229e-12
-6.9910328e-15
1.947354e-12
-6.7422879e-15
1.9501814e-12
-6.4990959e-15
1.9529073e-12
-6.2615255e-15
1.9555342e-12
-6.0296307e-15
1.9580645e-12
-5.8034515e-15
1.9605005e-12
-5.5830146e-15
1.9628446e-12
-5.3683347e-15
1.9650993e-12
-5.1594148e-15
1.9672669e-12
-4.9562471e-15
1.9693499e-12
-4.7588142e-15
1.9713507e-12
-4.5670889e-15
1.9732716e-12
-4.3810359e-15
1.975115e-12
-4.2006121e-15
1.9768832e-12
-4.0257672e-15
1.9785785e-12
-3.8564442e-15
1.9802033e-12
-3.6925806e-15
1.9817599e-12
-3.534108e-15
1.9832504e-12
-3.3809535e-15
1.9846771e-12
-3.2330402e-15
1.9860421e-12
-3.090287e-15
1.9873476e-12
-2.95261e-15
1.9885958e-12
-2.8199222e-15
1.9897886e-12
-2.6921343e-15
1.9909281e-12
-2.5691549e-15
1.9920163e-12
-2.4508914e-15
1.9930552e-12
-2.3372496e-15
1.9940467e-12
-2.2281348e-15
1.9949927e-12
-2.1234518e-15
1.9958949e-12
-2.0231051e-15
1.9967553e-12
-1.9269997e-15
1.9975756e-12
-1.8350406e-15
1.9983574e-12
-1.747134e-15
1.9991025e-12
-1.6631871e-15
1.9998126e-12
-1.5831085e-15
2.0004892e-12
-1.5068084e-15
2.0011339e-12
-1.4341989e-15
2.0017483e-12
-1.3651942e-15
2.0023338e-12
-1.2997112e-15
2.0028919e-12
-1.2376698e-15
2.0034241e-12
-1.1789933e-15
2.0039318e-12
-1.1236088e-15
2.0044163e-12
-1.0714476e-15
2.004879e-12
-1.022446e-15
2.0053212e-12
-9.7654577e-16
2.0057442e-12
-9.3369573e-16
2.0061493e-12
-8.9385255e-16
2.0065378e-12
-8.5698251e-16
2.0069109e-12
-8.2306381e-16
2.0072699e-12
-7.9208939e-16
2.007616e-12
-7.640709e-16
2.0079506e-12
-7.3904384e-16
2.0082748e-12
-7.1707485e-16
2.00859e-12
-6.9827179e-16
2.0088976e-12
-6.8279795e-16
2.0091991e-12
-6.7089117e-16
2.009496e-12
-6.6288996e-16
2.00979e-12
-6.5926831e-16
2.0100831e-12
-6.6068126e-16
2.0103774e-12
-6.680223e-16
2.0106753e-12
-6.8248999e-16
2.0109797e-12
-7.0565269e-16
2.0112936e-12
-7.3948291e-16
2.0116201e-12
-7.8629346e-16
2.0119623e-12
-8.4842808e-16
2.0123221e-12
-9.2739232e-16
2.0126989e-12
-1.0219841e-15
2.0130876e-12
-1.1246697e-15
-1.2114241e-15
-1.00014e-14
5.1125393e-13
3.6723003e-13
-3.8615684e-14
9.0895037e-13
-6.6717271e-13
1.429152e-12
-1.023623e-12
1.8718174e-12
-1.1729873e-12
2.2318811e-12
-1.1854937e-12
2.5196442e-12
-1.1140123e-12
2.7476827e-12
-9.9630113e-13
2.9264929e-12
-8.5712523e-13
3.0639599e-12
-7.1217419e-13
3.1659956e-12
-5.7118582e-13
3.2372614e-12
-4.3994855e-13
3.2816921e-12
-3.2161426e-13
3.3028078e-12
-2.1758271e-13
3.3038689e-12
-1.281036e-13
3.2879345e-12
-5.2690207e-14
3.2578682e-12
9.5950967e-15
3.2163218e-12
5.9945559e-14
3.1657214e-12
9.9665539e-14
3.1082527e-12
1.3007796e-13
3.0458527e-12
1.5246748e-13
2.9802095e-12
1.6804217e-13
2.9127698e-12
1.7791093e-13
2.844752e-12
1.8307233e-13
2.7771635e-12
1.8441112e-13
2.7108201e-12
1.8270023e-13
2.646367e-12
1.7860627e-13
2.5842998e-12
1.7269719e-13
2.5249849e-12
1.6545121e-13
2.4686786e-12
1.5726621e-13
2.415545e-12
1.4846913e-13
2.3656722e-12
1.3932502e-13
2.3190861e-12
1.3004561e-13
2.2757638e-12
1.2079705e-13
2.2356434e-12
1.1170705e-13
2.1986343e-12
1.0287114e-13
2.1646242e-12
9.4358255e-14
2.1334863e-12
8.621557e-14
2.1050841e-12
7.8472674e-14
2.0792759e-12
7.1145149e-14
2.0559185e-12
6.4237601e-14
2.0348696e-12
5.7746208e-14
2.0159898e-12
5.1660839e-14
1.9991443e-12
4.5966804e-14
1.984204e-12
4.064628e-14
1.9710459e-12
3.5679461e-14
1.9595539e-12
3.104547e-14
1.9496186e-12
2.6723078e-14
1.9411376e-12
2.2691247e-14
1.9340151e-12
1.8929538e-14
1.9281618e-12
1.5418409e-14
1.9234949e-12
1.213941e-14
1.9199368e-12
9.0753079e-15
1.9174159e-12
6.2101556e-15
1.9158653e-12
3.5293055e-15
1.9152228e-12
1.019394e-15
1.9154305e-12
-1.331705e-15
1.9164341e-12
-3.5349485e-15
1.9181831e-12
-5.600198e-15
1.92063e-12
-7.5363008e-15
1.9237303e-12
-9.3511793e-15
1.927442e-12
-1.1051918e-14
1.9317255e-12
-1.2644851e-14
1.9365432e-12
-1.4135644e-14
1.9418595e-12
-1.5529373e-14
1.9476406e-12
-1.6830599e-14
1.9538542e-12
-1.8043437e-14
1.9604694e-12
-1.9171615e-14
1.9674568e-12
-2.0218535e-14
1.9747879e-12
-2.1187319e-14
1.9824357e-12
-2.2080859e-14
1.9903741e-12
-2.290185e-14
1.998578e-12
-2.3652831e-14
2.0070231e-12
-2.4336208e-14
2.0156863e-12
-2.4954285e-14
2.0245451e-12
-2.5509281e-14
2.033578e-12
-2.600335e-14
2.0427642e-12
-2.6438594e-14
2.0520837e-12
-2.6817079e-14
2.0615174e-12
-2.7140836e-14
2.0710468e-12
-2.7411876e-14
2.0806541e-12
-2.7632191e-14
2.0903224e-12
-2.780376e-14
2.1000354e-12
-2.7928548e-14
2.1097775e-12
-2.800851e-14
2.1195339e-12
-2.8045591e-14
2.1292903e-12
-2.8041724e-14
2.1390334e-12
-2.7998828e-14
2.1487502e-12
-2.7918809e-14
2.1584286e-12
-2.7803556e-14
2.1680572e-12
-2.7654939e-14
2.177625e-12
-2.7474805e-14
2.1871219e-12
-2.726498e-14
2.1965381e-12
-2.7027261e-14
2.2058649e-12
-2.6763414e-14
2.2150936e-12
-2.6475175e-14
2.2242166e-12
-2.6164245e-14
2.2332266e-12
-2.5832288e-14
2.2421169e-12
-2.5480926e-14
2.2508813e-12
-2.5111742e-14
2.2595143e-12
-2.4726276e-14
2.2680107e-12
-2.4326022e-14
2.2763659e-12
-2.3912428e-14
2.2845758e-12
-2.3486893e-14
2.2926367e-12
-2.305077e-14
2.3005453e-12
-2.260536e-14
2.3082988e-12
-2.2151913e-14
2.3158948e-12
-2.1691632e-14
2.3233313e-12
-2.1225666e-14
2.3306067e-12
-2.0755114e-14
2.3377197e-12
-2.0281022e-14
2.3446692e-12
-1.9804389e-14
2.3514547e-12
-1.9326161e-14
2.3580759e-12
-1.8847233e-14
2.3645327e-12
-1.8368455e-14
2.3708254e-12
-1.7890625e-14
2.3769544e-12
-1.7414494e-14
2.3829205e-12
-1.6940766e-14
2.3887247e-12
-1.6470102e-14
2.3943681e-12
-1.6003116e-14
2.3998521e-12
-1.554038e-14
2.4051783e-12
-1.5082422e-14
2.4103483e-12
-1.4629733e-14
2.4153641e-12
-1.4182761e-14
2.4202276e-12
-1.3741918e-14
2.424941e-12
-1.3307579e-14
2.4295066e-12
-1.2880084e-14
2.4339268e-12
-1.2459739e-14
2.4382039e-12
-1.2046818e-14
2.4423407e-12
-1.1641563e-14
2.4463396e-12
-1.1244188e-14
2.4502035e-12
-1.0854879e-14
2.453935e-12
-1.0473795e-14
2.4575369e-12
-1.0101068e-14
2.4610122e-12
-9.7368094e-15
2.4643637e-12
-9.3811057e-15
2.4675943e-12
-9.0340228e-15
2.4707069e-12
-8.6956069e-15
2.4737044e-12
-8.3658853e-15
2.4765899e-12
-8.0448678e-15
2.4793662e-12
-7.7325478e-15
2.4820363e-12
-7.4289037e-15
2.4846031e-12
-7.1338995e-15
2.4870695e-12
-6.8474866e-15
2.4894385e-12
-6.5696041e-15
2.4917129e-12
-6.3001804e-15
2.4938956e-12
-6.0391336e-15
2.4959894e-12
-5.7863728e-15
2.4979971e-12
-5.5417987e-15
2.4999214e-12
-5.3053048e-15
2.5017652e-12
-5.0767779e-15
2.503531e-12
-4.8560989e-15
2.5052215e-12
-4.6431437e-15
2.5068394e-12
-4.4377836e-15
2.5083871e-12
-4.2398863e-15
2.5098673e-12
-4.0493161e-15
2.5112823e-12
-3.865935e-15
2.5126347e-12
-3.6896029e-15
2.5139267e-12
-3.5201785e-15
2.5151608e-12
-3.3575193e-15
2.5163392e-12
-3.2014827e-15
2.5174641e-12
-3.0519258e-15
2.5185378e-12
-2.9087068e-15
2.5195623e-12
-2.7716843e-15
2.5205399e-12
-2.640719e-15
2.5214724e-12
-2.515673e-15
2.522362e-12
-2.3964111e-15
2.5232106e-12
-2.2828003e-15
2.5240202e-12
-2.1747112e-15
2.5247925e-12
-2.0720179e-15
2.5255294e-12
-1.974599e-15
2.5262327e-12
-1.8823377e-15
2.5269042e-12
-1.7951231e-15
2.5275457e-12
-1.71285e-15
2.5281586e-12
-1.6354207e-15
2.5287448e-12
-1.5627457e-15
2.5293059e-12
-1.494745e-15
2.5298434e-12
-1.4313505e-15
2.5303589e-12
-1.3725075e-15
2.530854e-12
-1.3181782e-15
2.5313303e-12
-1.2683457e-15
2.5317892e-12
-1.2230187e-15
2.5322324e-12
-1.1822386e-15
2.5326614e-12
-1.1460889e-15
2.5330779e-12
-1.1147076e-15
2.5334834e-12
-1.0883045e-15
2.5338797e-12
-1.0671837e-15
2.5342686e-12
-1.0517731e-15
2.5346519e-12
-1.0426615e-15
2.5350319e-12
-1.0406452e-15
2.5354107e-12
-1.0467799e-15
2.5357906e-12
-1.062432e-15
2.5361743e-12
-1.0893071e-15
2.5365642e-12
-1.1294151e-15
2.5369628e-12
-1.1848862e-15
2.5373719e-12
-1.2574779e-15
2.5377919e-12
-1.3474851e-15
2.5382216e-12
-1.45168e-15
2.5386568e-12
-1.5598175e-15
-1.6470877e-15
4.1200822e-13
9.9245714e-14
1.4628304e-12
-1.0894378e-12
2.3607705e-12
-1.5651128e-12
2.996567e-12
-1.6594195e-12
3.427088e-12
-1.6035083e-12
3.715513e-12
-1.4739187e-12
3.9095734e-12
-1.3080728e-12
4.0403948e-12
-1.1271225e-12
4.1268711e-12
-9.4360155e-13
4.180276e-12
-7.6557909e-13
4.2074707e-12
-5.9838054e-13
4.2128889e-12
-4.4536671e-13
4.1996999e-12
-3.0842527e-13
4.1704508e-12
-1.8833365e-13
4.1273946e-12
-8.5047398e-14
4.0726384e-12
2.066014e-15
4.0081883e-12
7.4045213e-14
3.9359592e-12
1.3217465e-13
3.8577621e-12
1.778627e-13