/*--------------------------------*- C++ -*----------------------------------*\
| =========                 |                                                 |
| \\      /  F ield         | OpenFOAM: The Open Source CFD Toolbox           |
|  \\    /   O peration     | Version:  2406                                  |
|   \\  /    A nd           | Website:  www.openfoam.com                      |
|    \\/     M anipulation  |                                                 |
\*---------------------------------------------------------------------------*/
FoamFile
{
    version     2.0;
    format      ascii;
    arch        "LSB;label=32;scalar=64";
    class       volScalarField;
    location    "1460";
    object      T;
}
// * * * * * * * * * * * * * * * * * * * * * * * * * * * * * * * * * * * * * //

dimensions      [0 0 0 0 0 0 0];

internalField   nonuniform List<scalar> 
11000
(
1
1
1
1
1
1
1
1
1
1
1
1
1
1
1
1
1
1
1
1
1
1
1
1
1
1
1
1
1
1
1
1
1
1
1
1
1
1
1
1
1
1
1
1
1
1
1
1
1
1
1
1
1
1
1
1
1
1
1
1
1
1
1
1
1
1
1
1
1
1
1
1
1
1
1
1
1
1
1
1
1
1
1
1
1
1
1
1
1
1
1
1
1
1
1
1
1
1
1
1
1
1
1
1
1
1
1
1
1
1
1
1
1
1
1
1
1
1
1
1
1
1
1
1
1
1
1
1
1
1
1
1
1
1
1
1
1
1
1
1
1
1
1
1
1
1
1
1
1
1
1
1
1
1
1
1
1
1
1
1
1
1
1
1
1
1
1
1
1
1
1
1
1
1
1
1
1
1
1
1
1
1
1
1
1
1
1
1
1
1
1
1
1
1
1
1
1
1
1
1
1
1
1
1
1
1
1
1
1
1
1
1
1
1
1
1
1
1
1
1
1
1
1
1
1
1
1
1
1
1
1
1
1
1
1
1
1
1
1
1
1
1
1
1
1
1
1
1
1
1
1
1
1
1
1
1
1
1
1
1
1
1
1
1
1
1
1
1
1
1
1
1
1
1
1
1
1
1
1
1
1
1
1
1
1
1
1
1
1
1
1
1
1
1
1
1
1
1
1
1
1
1
1
1
1
1
1
1
1
1
1
1
1
1
1
1
1
1
1
1
1
1
1
1
1
1
1
1
1
1
1
1
1
1
1
1
1
1
1
1
1
1
1
1
1
1
1
1
1
1
1
1
1
1
1
1
1
1
1
1
1
1
1
1
1
1
1
1
1
1
1
1
1
1
1
1
1
1
1
1
1
1
1
1
1
1
1
1
1
1
1
1
1
1
1
1
1
1
1
1
1
1
1
1
1
1
1
1
1
1
1
1
1
1
1
1
1
1
1
1
1
1
1
1
1
1
1
1
1
1
1
1
1
1
1
1
1
1
1
1
1
1
1
1
1
1
1
1
1
1
1
1
1
1
1
1
1
1
1
1
1
1
1
1
1
1
1
1
1
1
1
1
1
1
1
1
1
1
1
1
1
1
1
1
1
1
1
1
1
1
1
1
1
1
1
1
1
1
1
1
1
1
1
1
1
1
1
1
1
1
1
1
1
1
1
1
1
1
1
1
1
1
1
1
1
1
1
1
1
1
1
1
1
1
1
1
1
1
1
1
1
1
1
1
1
1
1
1
1
1
1
1
1
1
1
1
1
1
1
1
1
1
1
1
1
1
1
1
1
1
1
1
1
1
1
1
1
1
1
1
1
1
1
1
1
1
1
1
1
1
1
1
1
1
1
1
1
1
1
1
1
1
1
1
1
1
1
1
1
1
1
1
1
1
1
1
1
1
1
1
1
1
1
1
1
1
1
1
1
1
1
1
1
1
1
1
1
1
1
1
1
1
1
1
1
1
1
1
1
1
1
1
1
1
1
1
1
1
1
1
1
1
1
1
1
1
1
1
1
1
1
1
1
1
1
1
1
1
1
1
1
1
1
1
1
1
1
1
1
1
1
1
1
1
1
1
1
1
1
1
1
1
1
1
1
1
1
1
1
1
1
1
1
1
1
1
1
1
1
1
1
1
1
1
1
1
1
1
1
1
1
1
1
1
1
1
1
1
1
1
1
1
1
1
1
1
1
1
1
1
1
1
1
1
1
1
1
1
1
1
1
1
1
1
1
1
1
1
1
1
1
1
1
1
1
1
1
1
1
1
1
1
1
1
1
1
1
1
1
1
1
1
1
1
1
1
1
1
1
1
1
1
1
1
1
1
1
1
1
1
1
1
1
1
1
1
1
1
1
1
1
1
1
1
1
1
1
1
1
1
1
1
1
1
1
1
1
1
1
1
1
1
1
1
1
1
1
1
1
1
1
1
1
1
1
1
1
1
1
1
1
1
1
1
1
1
1
1
1
1
1
1
1
1
1
1
1
1
1
1
1
1
1
1
1
1
1
1
1
1
1
1
1
1
1
1
1
1
1
1
1
1
1
1
1
1
1
1
1
1
1
1
1
1
1
1
1
1
1
1
1
1
1
1
1
1
1
1
1
1
1
1
1
1
1
1
1
1
1
1
1
1
1
1
1
1
1
1
1
1
1
1
1
1
1
1
1
1
1
1
1
1
1
1
1
1
1
1
1
1
1
1
1
1
1
1
1
1
1
1
1
1
1
1
1
1
1
1
1
1
1
1
1
1
1
1
1
1
1
1
1
1
1
1
1
1
1
1
1
1
1
1
1
1
1
1
1
1
1
1
1
1
1
1
1
1
1
1
1
1
1
1
1
1
1
1
1
1
1
1
1
1
1
1
1
1
1
1
1
1
1
1
1
1
1
1
1
1
1
1
1
1
1
1
1
1
1
1
1
1
1
1
1
1
1
1
1
1
1
1
1
1
1
1
1
1
1
1
1
1
1
1
1
1
1
1
1
1
1
1
1
1
1
1
1
1
1
1
1
1
1
1
1
1
1
1
1
1
1
1
1
1
1
1
1
1
1
1
1
1
1
1
1
1
1
1
1
1
1
1
1
1
1
1
1
1
1
1
1
1
1
1
1
1
1
1
1
1
1
1
1
1
1
1
1
1
1
1
1
1
1
1
1
1
1
1
1
1
1
1
1
1
1
1
1
1
1
1
1
1
1
1
1
1
1
1
1
1
1
1
1
1
1
1
1
1
1
1
1
1
1
1
1
1
1
1
1
1
1
1
1
1
1
1
1
1
1
1
1
1
1
1
1
1
1
1
1
1
1
1
1
1
1
1
1
1
1
1
1
1
1
1
1
1
1
1
1
1
1
1
1
1
1
1
1
1
1
1
1
1
1
1
1
1
1
1
1
1
1
1
1
1
1
1
1
1
1
1
1
1
1
1
1
1
1
1
1
1
1
1
1
1
1
1
1
1
1
1
1
1
1
1
1
1
1
1
1
1
1
1
1
1
1
1
1
1
1
1
1
1
1
1
1
1
1
1
1
1
1
1
1
1
1
1
1
1
1
1
1
1
1
1
1
1
1
1
1
1
1
1
1
1
1
1
1
1
1
1
1
1
1
1
1
1
1
1
1
1
1
1
1
1
1
1
1
1
1
1
1
1
1
1
1
1
1
1
1
1
1
1
1
1
1
1
1
1
1
1
1
1
1
1
1
1
1
1
1
1
1
1
1
1
1
1
1
1
1
1
1
1
1
1
1
1
1
1
1
1
1
1
1
1
1
1
1
1
1
1
1
1
1
1
1
1
1
1
1
1
1
1
1
1
1
1
1
1
1
1
1
1
1
1
1
1
1
1
1
1
1
1
1
1
1
1
1
1
1
1
1
1
1
1
1
1
1
1
1
1
1
1
1
1
1
1
1
1
1
1
1
1
1
1
1
1
1
1
1
1
1
1
1
1
1
1
1
1
1
1
1
1
1
1
1
1
1
1
1
1
1
1
1
1
1
1
1
1
1
1
1
1
1
1
1
1
1
1
1
1
1
1
1
1
1
1
1
1
1
1
1
1
1
1
1
1
1
1
1
1
1
1
1
1
1
1
1
1
1
1
1
1
1
1
1
1
1
1
1
1
1
1
1
1
1
1
1
1
1
1
1
1
1
1
1
1
1
1
1
1
1
1
1
1
1
1
1
1
1
1
1
1
1
1
1
1
1
1
1
1
1
1
1
1
1
1
1
1
1
1
1
1
1
1
1
1
1
1
1
1
1
1
1
1
1
1
1
1
1
1
1
1
1
1
1
1
1
1
1
1
1
1
1
1
1
1
1
1
1
1
1
1
1
1
1
1
1
1
1
1
1
1
1
1
1
1
1
1
1
1
1
1
1
1
1
1
1
1
1
1
1
1
1
1
1
1
1
1
1
1
1
1
1
1
1
1
1
1
1
1
1
1
1
1
1
1
1
1
1
1
1
1
1
1
1
1
1
1
1
1
1
1
1
1
1
1
1
1
1
1
1
1
1
1
1
1
1
1
1
1
1
1
1
1
1
1
1
1
1
1
1
1
1
1
1
1
1
1
1
1
1
1
1
1
1
1
1
1
1
1
1
1
1
1
1
1
1
1
1
1
1
1
1
1
1
1
1
1
1
1
1
1
1
1
1
1
1
1
1
1
1
1
1
1
1
1
1
1
1
1
1
1
1
1
1
1
1
1
1
1
1
1
1
1
1
1
1
1
1
1
1
1
1
1
1
1
1
1
1
1
1
1
1
1
1
1
1
1
1
1
1
1
1
1
1
1
1
1
1
1
1
1
1
1
1
1
1
1
1
1
1
1
1
1
1
1
1
1
1
1
1
1
1
1
1
1
0.99999999
0.99999999
0.99999999
0.99999999
0.99999999
0.99999999
0.99999999
0.99999999
0.99999999
0.99999999
0.99999999
0.99999999
0.99999999
0.99999999
0.99999999
0.99999999
0.99999999
0.99999999
0.99999998
0.99999998
0.99999998
0.99999998
0.99999998
0.99999998
0.99999998
0.99999998
0.99999998
0.99999998
0.99999998
0.99999998
0.99999998
0.99999998
0.99999998
0.99999998
0.99999998
0.99999998
0.99999997
0.99999997
0.99999997
0.99999997
0.99999997
0.99999997
0.99999997
0.99999997
0.99999997
0.99999997
0.99999997
0.99999997
0.99999997
0.99999997
0.99999997
0.99999997
0.99999997
0.99999997
0.99999997
0.99999997
0.99999997
0.99999997
0.99999997
0.99999997
0.99999997
0.99999997
0.99999997
0.99999997
0.99999997
0.99999997
0.99999997
0.99999997
0.99999997
0.99999996
0.99999996
0.99999996
0.99999996
0.99999996
0.99999996
0.99999996
1
1
1
1
1
1
1
1
1
1
1
1
1
1
1
1
1
1
1
1
1
1
1
1
1
1
1
1
1
1
1
1
1
1
1
1
1
1
1
1
1
1
1
1
1
1
1
1
1
1
1
1
1
1
1
1
1
1
1
1
1
1
1
1
1
1
1
1
1
1
1
1
1
1
1
1
1
1
1
1
1
1
1
1
1
1
1
1
1
1
1
1
1
1
1
1
1
1
1
1
1
1
1
1
1
1
0.99999999
0.99999999
0.99999999
0.99999999
0.99999999
0.99999999
0.99999999
0.99999998
0.99999998
0.99999998
0.99999998
0.99999998
0.99999997
0.99999997
0.99999997
0.99999997
0.99999996
0.99999996
0.99999996
0.99999995
0.99999995
0.99999995
0.99999994
0.99999994
0.99999993
0.99999993
0.99999992
0.99999992
0.99999992
0.99999991
0.99999991
0.9999999
0.9999999
0.99999989
0.99999989
0.99999989
0.99999988
0.99999988
0.99999987
0.99999987
0.99999986
0.99999986
0.99999985
0.99999985
0.99999985
0.99999984
0.99999984
0.99999983
0.99999983
0.99999983
0.99999982
0.99999982
0.99999982
0.99999981
0.99999981
0.99999981
0.9999998
0.9999998
0.9999998
0.99999979
0.99999979
0.99999979
0.99999979
0.99999978
0.99999978
0.99999978
0.99999978
0.99999977
0.99999977
0.99999977
0.99999977
0.99999977
0.99999976
0.99999976
0.99999976
0.99999976
0.99999976
0.99999976
0.99999975
0.99999975
0.99999975
0.99999975
0.99999975
0.99999975
0.99999974
0.99999974
0.99999974
0.99999974
0.99999974
0.99999974
0.99999974
0.99999973
0.99999973
0.99999973
1
1
1
1
1
1
1
1
1
1
1
1
1
1
1
1
1
1
1
1
1
1
1
1
1
1
1
1
1
1
1
1
1
1
1
1
1
1
1
1
1
1
1
1
1
1
1
1
1
1
1
1
1
1
1
1
1
1
1
1
1
1
1
1
1
1
1
1
1
1
1
1
1
1
1
1
1
1
1
1
1
1
1
1
1
1
1
1
1
1
1
1
1
1
1
0.99999999
0.99999999
0.99999999
0.99999999
0.99999999
0.99999998
0.99999998
0.99999997
0.99999997
0.99999996
0.99999996
0.99999995
0.99999994
0.99999994
0.99999993
0.99999992
0.99999991
0.99999989
0.99999988
0.99999987
0.99999985
0.99999984
0.99999982
0.9999998
0.99999978
0.99999976
0.99999974
0.99999972
0.9999997
0.99999968
0.99999966
0.99999963
0.99999961
0.99999958
0.99999955
0.99999953
0.9999995
0.99999947
0.99999945
0.99999942
0.99999939
0.99999936
0.99999933
0.99999931
0.99999928
0.99999925
0.99999922
0.99999919
0.99999917
0.99999914
0.99999911
0.99999908
0.99999906
0.99999903
0.99999901
0.99999898
0.99999896
0.99999893
0.99999891
0.99999888
0.99999886
0.99999884
0.99999882
0.9999988
0.99999877
0.99999875
0.99999873
0.99999872
0.9999987
0.99999868
0.99999866
0.99999865
0.99999863
0.99999861
0.9999986
0.99999858
0.99999857
0.99999855
0.99999854
0.99999853
0.99999852
0.9999985
0.99999849
0.99999848
0.99999847
0.99999846
0.99999845
0.99999844
0.99999843
0.99999842
0.99999841
0.9999984
0.99999839
0.99999838
0.99999837
0.99999836
0.99999836
0.99999835
0.99999834
0.99999833
0.99999832
0.99999831
0.9999983
0.9999983
0.99999829
1
1
1
1
1
1
1
1
1
1
1
1
1
1
1
1
1
1
1
1
1
1
1
1
1
1
1
1
1
1
1
1
1
1
1
1
1
1
1
1
1
1
1
1
1
1
1
1
1
1
1
1
1
1
1
1
1
1
1
1
1
1
1
1
1
1
1
1
1
1
1
1
1
1
1
1
1
1
1
1
1
1
1
1
1
1
0.99999999
0.99999999
0.99999999
0.99999999
0.99999998
0.99999998
0.99999997
0.99999996
0.99999996
0.99999994
0.99999993
0.99999992
0.9999999
0.99999988
0.99999986
0.99999983
0.9999998
0.99999977
0.99999973
0.99999969
0.99999964
0.99999959
0.99999953
0.99999947
0.99999941
0.99999934
0.99999926
0.99999918
0.99999909
0.999999
0.9999989
0.9999988
0.9999987
0.99999858
0.99999847
0.99999835
0.99999822
0.99999809
0.99999796
0.99999782
0.99999768
0.99999754
0.99999739
0.99999725
0.9999971
0.99999695
0.99999679
0.99999664
0.99999648
0.99999633
0.99999617
0.99999602
0.99999586
0.99999571
0.99999555
0.9999954
0.99999525
0.9999951
0.99999495
0.9999948
0.99999466
0.99999451
0.99999437
0.99999424
0.9999941
0.99999397
0.99999384
0.99999371
0.99999359
0.99999347
0.99999335
0.99999323
0.99999312
0.99999301
0.99999291
0.99999281
0.99999271
0.99999261
0.99999252
0.99999242
0.99999234
0.99999225
0.99999217
0.99999209
0.99999201
0.99999194
0.99999187
0.9999918
0.99999173
0.99999166
0.9999916
0.99999154
0.99999148
0.99999142
0.99999137
0.99999131
0.99999126
0.99999121
0.99999116
0.99999111
0.99999106
0.99999102
0.99999097
0.99999093
0.99999088
0.99999084
0.9999908
0.99999075
0.99999071
0.99999067
0.99999063
0.99999058
0.99999054
0.9999905
1
1
1
1
1
1
1
1
1
1
1
1
1
1
1
1
1
1
1
1
1
1
1
1
1
1
1
1
1
1
1
1
1
1
1
1
1
1
1
1
1
1
1
1
1
1
1
1
1
1
1
1
1
1
1
1
1
1
1
1
1
1
1
1
1
1
1
1
1
1
1
1
1
1
1
1
1
1
1
1
0.99999999
0.99999999
0.99999999
0.99999998
0.99999997
0.99999996
0.99999995
0.99999993
0.99999991
0.99999988
0.99999985
0.99999981
0.99999977
0.99999971
0.99999965
0.99999957
0.99999948
0.99999938
0.99999926
0.99999913
0.99999898
0.99999881
0.99999862
0.99999842
0.99999819
0.99999793
0.99999766
0.99999736
0.99999704
0.99999669
0.99999632
0.99999592
0.9999955
0.99999505
0.99999458
0.99999408
0.99999356
0.99999302
0.99999246
0.99999187
0.99999126
0.99999064
0.99999
0.99998934
0.99998867
0.99998798
0.99998728
0.99998656
0.99998584
0.99998511
0.99998438
0.99998364
0.99998289
0.99998214
0.99998139
0.99998064
0.9999799
0.99997915
0.99997841
0.99997767
0.99997694
0.99997622
0.99997551
0.9999748
0.9999741
0.99997342
0.99997274
0.99997208
0.99997143
0.99997079
0.99997016
0.99996955
0.99996895
0.99996837
0.9999678
0.99996725
0.99996671
0.99996618
0.99996567
0.99996517
0.99996469
0.99996422
0.99996377
0.99996333
0.9999629
0.99996249
0.99996209
0.99996171
0.99996133
0.99996097
0.99996062
0.99996029
0.99995996
0.99995965
0.99995934
0.99995905
0.99995876
0.99995849
0.99995822
0.99995797
0.99995772
0.99995748
0.99995724
0.99995701
0.99995679
0.99995658
0.99995637
0.99995616
0.99995596
0.99995576
0.99995557
0.99995538
0.99995519
0.999955
0.99995482
0.99995463
0.99995445
0.99995426
0.99995408
0.99995389
1
1
1
1
1
1
1
1
1
1
1
1
1
1
1
1
1
1
1
1
1
1
1
1
1
1
1
1
1
1
1
1
1
1
1
1
1
1
1
1
1
1
1
1
1
1
1
1
1
1
1
1
1
1
1
1
1
1
1
1
1
1
1
1
1
1
1
1
1
1
1
1
1
1
0.99999999
0.99999999
0.99999998
0.99999998
0.99999996
0.99999995
0.99999993
0.9999999
0.99999986
0.99999981
0.99999975
0.99999967
0.99999957
0.99999945
0.9999993
0.99999912
0.9999989
0.99999865
0.99999834
0.99999799
0.99999759
0.99999712
0.99999659
0.99999598
0.99999531
0.99999455
0.99999371
0.99999277
0.99999175
0.99999063
0.99998942
0.9999881
0.99998668
0.99998515
0.99998352
0.99998179
0.99997995
0.99997801
0.99997597
0.99997383
0.99997159
0.99996926
0.99996684
0.99996433
0.99996174
0.99995907
0.99995633
0.99995352
0.99995065
0.99994773
0.99994475
0.99994174
0.99993868
0.99993559
0.99993248
0.99992934
0.99992619
0.99992304
0.99991987
0.99991672
0.99991357
0.99991043
0.99990731
0.99990421
0.99990113
0.99989809
0.99989508
0.99989211
0.99988918
0.99988629
0.99988345
0.99988066
0.99987792
0.99987524
0.9998726
0.99987003
0.99986751
0.99986505
0.99986266
0.99986032
0.99985804
0.99985582
0.99985367
0.99985158
0.99984954
0.99984757
0.99984565
0.9998438
0.999842
0.99984026
0.99983858
0.99983695
0.99983538
0.99983385
0.99983238
0.99983096
0.99982959
0.99982827
0.99982699
0.99982576
0.99982457
0.99982341
0.9998223
0.99982123
0.99982019
0.99981919
0.99981821
0.99981727
0.99981636
0.99981548
0.99981462
0.99981378
0.99981297
0.99981217
0.9998114
0.99981064
0.99980989
0.99980916
0.99980844
0.99980773
0.99980702
0.99980632
0.99980562
0.99980492
0.99980422
0.99980352
1
1
1
1
1
1
1
1
1
1
1
1
1
1
1
1
1
1
1
1
1
1
1
1
1
1
1
1
1
1
1
1
1
1
1
1
1
1
1
1
1
1
1
1
1
1
1
1
1
1
1
1
1
1
1
1
1
1
1
1
1
1
1
1
1
1
1
1
1
0.99999999
0.99999999
0.99999998
0.99999997
0.99999995
0.99999992
0.99999989
0.99999983
0.99999976
0.99999966
0.99999953
0.99999936
0.99999915
0.99999887
0.99999852
0.99999808
0.99999755
0.9999969
0.99999613
0.9999952
0.99999412
0.99999284
0.99999137
0.99998967
0.99998773
0.99998554
0.99998306
0.99998029
0.99997721
0.9999738
0.99997006
0.99996596
0.99996149
0.99995666
0.99995144
0.99994584
0.99993986
0.99993349
0.99992673
0.99991959
0.99991208
0.99990419
0.99989595
0.99988736
0.99987843
0.99986918
0.99985963
0.99984979
0.99983968
0.99982932
0.99981872
0.99980792
0.99979692
0.99978576
0.99977445
0.99976302
0.99975148
0.99973987
0.99972819
0.99971647
0.99970473
0.99969299
0.99968128
0.9996696
0.99965797
0.99964642
0.99963496
0.9996236
0.99961236
0.99960125
0.99959029
0.99957948
0.99956883
0.99955836
0.99954807
0.99953798
0.99952808
0.99951839
0.9995089
0.99949963
0.99949058
0.99948175
0.99947313
0.99946475
0.99945658
0.99944864
0.99944092
0.99943343
0.99942616
0.9994191
0.99941227
0.99940564
0.99939923
0.99939303
0.99938703
0.99938123
0.99937563
0.99937021
0.99936498
0.99935994
0.99935506
0.99935036
0.99934583
0.99934145
0.99933723
0.99933316
0.99932923
0.99932543
0.99932177
0.99931823
0.99931481
0.99931151
0.99930831
0.99930522
0.99930222
0.9992993
0.99929648
0.99929373
0.99929105
0.99928843
0.99928588
0.99928337
0.99928092
0.9992785
0.99927612
0.99927377
0.99927144
0.99926913
0.99926683
0.99926454
0.99926224
1
1
1
1
1
1
1
1
1
1
1
1
1
1
1
1
1
1
1
1
1
1
1
1
1
1
1
1
1
1
1
1
1
1
1
1
1
1
1
1
1
1
1
1
1
1
1
1
1
1
1
1
1
1
1
1
1
1
1
1
1
1
1
1
1
0.99999999
0.99999998
0.99999997
0.99999995
0.99999991
0.99999986
0.99999978
0.99999966
0.9999995
0.99999927
0.99999896
0.99999854
0.99999799
0.99999728
0.99999637
0.99999522
0.99999379
0.99999203
0.99998989
0.99998731
0.99998424
0.99998061
0.99997637
0.99997145
0.99996579
0.99995933
0.999952
0.99994374
0.99993451
0.99992424
0.99991289
0.99990041
0.99988676
0.99987192
0.99985585
0.99983854
0.99981996
0.99980012
0.99977902
0.99975665
0.99973304
0.9997082
0.99968216
0.99965495
0.99962661
0.99959718
0.99956672
0.99953526
0.99950287
0.99946961
0.99943554
0.99940072
0.99936522
0.99932911
0.99929246
0.99925533
0.99921781
0.99917995
0.99914182
0.9991035
0.99906505
0.99902654
0.99898802
0.99894957
0.99891123
0.99887308
0.99883515
0.9987975
0.99876018
0.99872324
0.99868672
0.99865066
0.99861509
0.99858005
0.99854557
0.99851168
0.9984784
0.99844575
0.99841376
0.99838245
0.99835182
0.99832189
0.99829267
0.99826417
0.99823638
0.99820933
0.998183
0.99815739
0.99813251
0.99810835
0.99808491
0.99806217
0.99804013
0.99801879
0.99799813
0.99797814
0.9979588
0.99794012
0.99792206
0.99790462
0.99788779
0.99787154
0.99785586
0.99784074
0.99782616
0.9978121
0.99779854
0.99778548
0.99777288
0.99776073
0.99774902
0.99773772
0.99772682
0.9977163
0.99770615
0.99769634
0.99768686
0.99767768
0.9976688
0.99766019
0.99765184
0.99764372
0.99763582
0.99762813
0.99762062
0.99761328
0.99760609
0.99759904
0.9975921
0.99758525
0.99757849
0.9975718
0.99756516
0.99755855
0.99755196
1
1
1
1
1
1
1
1
1
1
1
1
1
1
1
1
1
1
1
1
1
1
1
1
1
1
1
1
1
1
1
1
1
1
1
1
1
1
1
1
1
1
1
1
1
1
1
1
1
1
1
1
1
1
1
1
1
1
1
1
1
0.99999999
0.99999998
0.99999996
0.99999992
0.99999986
0.99999977
0.99999962
0.99999939
0.99999905
0.99999856
0.99999788
0.99999694
0.99999567
0.99999399
0.99999181
0.999989
0.99998546
0.99998103
0.99997559
0.99996896
0.99996098
0.99995147
0.99994026
0.99992716
0.99991197
0.99989453
0.99987463
0.99985211
0.99982679
0.99979851
0.99976713
0.99973251
0.99969453
0.99965309
0.9996081
0.9995595
0.99950725
0.9994513
0.99939167
0.99932835
0.99926138
0.99919082
0.99911674
0.99903922
0.99895836
0.99887428
0.99878713
0.99869704
0.99860417
0.99850869
0.99841077
0.99831061
0.99820838
0.99810429
0.99799853
0.9978913
0.9977828
0.99767323
0.99756278
0.99745166
0.99734006
0.99722816
0.99711615
0.99700421
0.9968925
0.99678119
0.99667044
0.9965604
0.99645122
0.99634302
0.99623593
0.99613008
0.99602557
0.9959225
0.99582096
0.99572105
0.99562284
0.99552639
0.99543178
0.99533905
0.99524825
0.99515943
0.99507261
0.99498782
0.99490508
0.99482442
0.99474583
0.99466932
0.9945949
0.99452255
0.99445227
0.99438405
0.99431786
0.99425368
0.9941915
0.99413127
0.99407299
0.9940166
0.99396208
0.99390939
0.99385849
0.99380934
0.9937619
0.99371612
0.99367197
0.9936294
0.99358836
0.99354881
0.99351069
0.99347397
0.99343859
0.99340451
0.99337167
0.99334004
0.99330955
0.99328018
0.99325185
0.99322454
0.99319819
0.99317275
0.99314818
0.99312444
0.99310146
0.99307921
0.99305765
0.99303672
0.99301638
0.99299659
0.9929773
0.99295847
0.99294006
0.99292201
0.9929043
0.99288687
0.99286969
0.99285271
0.9928359
0.99281921
0.99280261
1
1
1
1
1
1
1
1
1
1
1
1
1
1
1
1
1
1
1
1
1
1
1
1
1
1
1
1
1
1
1
1
1
1
1
1
1
1
1
1
1
1
1
1
1
1
1
1
1
1
1
1
1
1
1
1
1
0.99999999
0.99999998
0.99999995
0.9999999
0.99999981
0.99999965
0.99999939
0.99999897
0.99999833
0.99999737
0.99999597
0.99999398
0.99999124
0.99998752
0.99998257
0.99997612
0.99996783
0.99995735
0.99994429
0.99992822
0.9999087
0.99988524
0.99985738
0.99982459
0.99978639
0.99974227
0.99969173
0.9996343
0.99956952
0.99949697
0.99941624
0.99932699
0.99922888
0.99912166
0.9990051
0.99887903
0.99874333
0.99859794
0.99844285
0.9982781
0.99810378
0.99792003
0.99772706
0.99752508
0.99731439
0.9970953
0.99686817
0.99663338
0.99639135
0.99614252
0.99588736
0.99562635
0.99535998
0.99508875
0.99481318
0.99453379
0.99425109
0.99396561
0.99367784
0.99338829
0.99309746
0.99280584
0.99251388
0.99222206
0.9919308
0.99164053
0.99135165
0.99106454
0.99077958
0.9904971
0.99021743
0.98994087
0.9896677
0.98939818
0.98913256
0.98887104
0.98861385
0.98836114
0.98811308
0.98786982
0.98763148
0.98739817
0.98716997
0.98694696
0.98672919
0.98651672
0.98630957
0.98610775
0.98591128
0.98572015
0.98553433
0.9853538
0.98517852
0.98500845
0.98484352
0.98468369
0.98452887
0.98437899
0.98423398
0.98409373
0.98395817
0.9838272
0.98370072
0.98357862
0.9834608
0.98334716
0.98323758
0.98313195
0.98303016
0.98293209
0.98283764
0.98274667
0.98265909
0.98257477
0.9824936
0.98241545
0.98234023
0.9822678
0.98219806
0.9821309
0.98206619
0.98200383
0.98194371
0.98188572
0.98182975
0.98177569
0.98172343
0.98167288
0.98162392
0.98157645
0.98153037
0.98148557
0.98144197
0.98139946
0.98135794
0.98131732
0.98127751
0.98123841
0.98119993
0.98116199
0.98112449
0.98108735
0.98105045
1
1
1
1
1
1
1
1
1
1
1
1
1
1
1
1
1
1
1
1
1
1
1
1
1
1
1
1
1
1
1
1
1
1
1
1
1
1
1
1
1
1
1
1
1
1
1
1
1
1
1
1
1
1
0.99999998
0.99999996
0.9999999
0.99999978
0.99999956
0.99999915
0.99999846
0.99999733
0.99999556
0.99999288
0.99998896
0.99998337
0.99997561
0.99996508
0.99995107
0.9999328
0.99990938
0.99987984
0.99984315
0.99979818
0.99974376
0.9996787
0.99960177
0.99951173
0.99940736
0.99928747
0.99915091
0.9989966
0.99882353
0.99863077
0.99841751
0.99818303
0.99792676
0.9976482
0.99734704
0.99702306
0.99667619
0.99630647
0.99591409
0.99549934
0.99506266
0.99460455
0.99412567
0.99362674
0.99310858
0.99257209
0.99201822
0.99144801
0.99086254
0.99026291
0.9896503
0.98902587
0.98839082
0.98774636
0.9870937
0.98643403
0.98576855
0.98509843
0.98442483
0.98374886
0.98307164
0.98239421
0.9817176
0.98104279
0.98037073
0.97970231
0.97903838
0.97837975
0.97772717
0.97708135
0.97644295
0.97581259
0.97519083
0.97457818
0.97397514
0.97338211
0.9727995
0.97222764
0.97166683
0.97111734
0.97057939
0.97005317
0.96953883
0.9690365
0.96854626
0.96806817
0.96760226
0.96714853
0.96670698
0.96627754
0.96586015
0.96545474
0.96506118
0.96467937
0.96430916
0.9639504
0.96360292
0.96326654
0.96294108
0.96262634
0.9623221
0.96202816
0.96174428
0.96147024
0.96120581
0.96095075
0.96070482
0.96046776
0.96023935
0.96001932
0.95980743
0.95960343
0.95940707
0.95921809
0.95903626
0.95886132
0.95869303
0.95853113
0.9583754
0.95822558
0.95808144
0.95794274
0.95780925
0.95768074
0.95755698
0.95743774
0.95732281
0.95721195
0.95710496
0.95700163
0.95690173
0.95680507
0.95671144
0.95662063
0.95653245
0.95644671
0.95636321
0.95628176
0.95620218
0.95612429
0.95604791
0.95597287
0.955899
0.95582612
0.95575406
0.95568259
1
1
1
1
1
1
1
1
1
1
1
1
1
1
1
1
1
1
1
1
1
1
1
1
1
1
1
1
1
1
1
1
1
1
1
1
1
1
1
1
1
1
1
1
1
1
1
1
1
1
0.99999999
0.99999998
0.99999993
0.9999998
0.99999952
0.99999896
0.99999791
0.99999608
0.99999304
0.99998823
0.99998088
0.99997007
0.99995462
0.99993318
0.99990411
0.9998656
0.99981558
0.99975181
0.99967186
0.99957317
0.99945308
0.99930882
0.99913765
0.99893681
0.9987036
0.99843544
0.99812987
0.99778461
0.99739758
0.99696694
0.99649112
0.99596878
0.99539891
0.99478078
0.99411396
0.99339829
0.99263395
0.99182137
0.99096127
0.99005461
0.9891026
0.98810669
0.98706852
0.9859899
0.98487283
0.98371945
0.98253199
0.98131282
0.98006437
0.97878912
0.97748961
0.97616841
0.97482807
0.97347115
0.9721002
0.97071772
0.96932615
0.96792792
0.96652535
0.9651207
0.96371616
0.96231383
0.96091572
0.95952374
0.95813972
0.95676535
0.95540228
0.95405202
0.95271597
0.95139548
0.95009174
0.94880588
0.94753894
0.94629184
0.94506542
0.94386044
0.94267756
0.94151738
0.9403804
0.93926706
0.93817771
0.93711264
0.93607209
0.93505622
0.93406513
0.93309889
0.93215748
0.93124086
0.93034894
0.92948159
0.92863862
0.92781984
0.92702499
0.92625381
0.92550599
0.92478121
0.92407911
0.92339933
0.92274147
0.92210514
0.9214899
0.92089534
0.92032099
0.91976641
0.91923114
0.91871471
0.91821664
0.91773645
0.91727368
0.91682782
0.91639841
0.91598496
0.91558698
0.915204
0.91483553
0.91448111
0.91414026
0.91381251
0.91349741
0.91319448
0.91290329
0.91262338
0.91235431
0.91209565
0.91184696
0.91160782
0.91137782
0.91115655
0.91094359
0.91073856
0.91054106
0.9103507
0.91016711
0.90998992
0.90981876
0.90965327
0.90949309
0.90933789
0.90918732
0.90904104
0.90889874
0.9087601
0.90862479
0.90849252
0.90836299
0.9082359
0.90811098
0.90798793
0.90786644
0.90774611
1
1
1
1
1
1
1
1
1
1
1
1
1
1
1
1
1
1
1
1
1
1
1
1
1
1
1
1
1
1
1
1
1
1
1
1
1
1
1
1
1
1
1
1
1
1
1
1
0.99999997
0.99999988
0.9999996
0.99999893
0.99999751
0.99999477
0.99998985
0.99998156
0.99996832
0.99994807
0.99991827
0.99987587
0.99981729
0.99973845
0.99963482
0.99950145
0.99933305
0.9991241
0.99886889
0.99856166
0.9981967
0.99776844
0.99727152
0.99670093
0.99605206
0.99532076
0.99450341
0.99359699
0.99259907
0.99150784
0.99032215
0.98904148
0.98766595
0.98619627
0.98463374
0.98298023
0.98123808
0.97941015
0.97749968
0.97551032
0.97344604
0.9713111
0.96911
0.96684742
0.96452821
0.9621573
0.95973972
0.9572805
0.95478469
0.9522573
0.94970327
0.94712747
0.94453465
0.94192944
0.93931631
0.93669959
0.93408343
0.93147179
0.92886847
0.92627705
0.92370092
0.92114328
0.91860712
0.91609525
0.91361025
0.91115452
0.90873029
0.90633958
0.90398423
0.9016659
0.8993861
0.89714615
0.89494724
0.89279038
0.89067645
0.88860619
0.88658023
0.88459903
0.88266298
0.88077234
0.87892726
0.87712781
0.87537395
0.87366558
0.87200249
0.87038444
0.86881107
0.867282
0.86579679
0.86435491
0.86295584
0.86159897
0.86028367
0.85900927
0.85777509
0.85658038
0.85542442
0.85430642
0.8532256
0.85218116
0.85117228
0.85019814
0.8492579
0.84835073
0.84747578
0.8466322
0.84581916
0.84503582
0.84428131
0.84355482
0.84285551
0.84218255
0.84153512
0.84091242
0.84031363
0.83973796
0.83918464
0.83865289
0.83814194
0.83765104
0.83717946
0.83672646
0.83629134
0.83587338
0.83547189
0.8350862
0.83471564
0.83435955
0.83401729
0.83368823
0.83337175
0.83306724
0.83277411
0.83249177
0.83221966
0.83195721
0.83170387
0.8314591
0.83122239
0.8309932
0.83077104
0.8305554
0.83034582
0.83014182
0.82994294
0.82974874
0.82955878
0.82937263
0.82918988
0.8290101
0.82883283
0.82865747
1
1
1
1
1
1
1
1
1
1
1
1
1
1
1
1
1
1
1
1
1
1
1
1
1
1
1
1
1
1
1
1
1
1
1
1
1
1
1
1
1
1
1
1
1
0.99999998
0.99999981
0.99999919
0.99999751
0.99999371
0.99998612
0.99997228
0.99994883
0.99991136
0.99985437
0.99977123
0.99965421
0.99949455
0.99928263
0.99900808
0.99866002
0.99822726
0.99769855
0.99706279
0.99630929
0.99542792
0.99440938
0.99324527
0.9919283
0.99045238
0.98881266
0.98700558
0.98502894
0.98288183
0.98056462
0.97807892
0.9754275
0.97261422
0.96964392
0.96652235
0.96325605
0.95985226
0.95631879
0.95266395
0.94889643
0.94502522
0.94105952
0.93700862
0.93288188
0.92868863
0.92443812
0.92013943
0.91580146
0.9114329
0.90704211
0.9026372
0.89822593
0.89381572
0.88941361
0.88502628
0.88066003
0.87632077
0.87201405
0.867745
0.8635184
0.85933866
0.8552098
0.85113553
0.84711919
0.8431638
0.83927207
0.8354464
0.8316889
0.82800141
0.82438551
0.82084252
0.81737355
0.81397947
0.81066095
0.80741847
0.80425233
0.80116265
0.79814942
0.79521245
0.79235145
0.78956599
0.78685553
0.78421942
0.78165693
0.77916722
0.77674941
0.77440251
0.7721255
0.76991728
0.76777672
0.76570263
0.76369379
0.76174894
0.75986681
0.7580461
0.75628548
0.75458361
0.75293915
0.75135074
0.74981702
0.74833662
0.74690819
0.74553037
0.7442018
0.74292114
0.74168705
0.7404982
0.73935329
0.73825102
0.7371901
0.73616925
0.73518725
0.73424284
0.73333481
0.73246197
0.73162315
0.73081718
0.73004294
0.7292993
0.72858517
0.72789948
0.72724117
0.72660922
0.72600262
0.72542036
0.72486149
0.72432506
0.72381013
0.7233158
0.72284117
0.72238539
0.72194759
0.72152695
0.72112264
0.72073388
0.72035989
0.7199999
0.71965317
0.71931897
0.7189966
0.71868535
0.71838455
0.71809353
0.71781165
0.71753827
0.71727279
0.7170146
0.71676311
0.71651778
0.71627804
0.71604335
0.7158132
0.71558704
0.71536428
0.71514416
1
1
1
1
1
1
1
1
1
1
1
1
1
1
1
1
1
1
1
1
1
1
1
1
1
1
1
1
1
1
1
1
1
1
1
1
1
1
1
1
1
1
1
0.99999977
0.99999829
0.99999358
0.99998228
0.99995923
0.99991714
0.99984642
0.99973508
0.9995688
0.99933112
0.99900377
0.99856708
0.99800045
0.9972829
0.99639357
0.99531227
0.99401994
0.9924991
0.99073418
0.98871185
0.98642121
0.98385392
0.98100432
0.97786937
0.97444864
0.9707442
0.96676045
0.96250399
0.95798337
0.95320893
0.94819252
0.94294732
0.93748759
0.93182844
0.92598565
0.91997548
0.91381442
0.90751912
0.90110617
0.89459199
0.88799271
0.88132406
0.87460131
0.86783918
0.86105177
0.85425254
0.84745426
0.84066898
0.83390803
0.82718202
0.82050081
0.81387355
0.80730866
0.80081387
0.79439623
0.78806212
0.78181732
0.77566697
0.76961566
0.7636674
0.75782571
0.7520936
0.74647362
0.7409679
0.73557815
0.73030571
0.72515157
0.72011638
0.7152005
0.71040403
0.70572678
0.70116835
0.69672813
0.69240531
0.68819889
0.68410774
0.68013057
0.67626596
0.67251239
0.66886824
0.66533177
0.66190121
0.6585747
0.65535031
0.6522261
0.64920005
0.64627013
0.64343428
0.64069043
0.63803649
0.63547036
0.63298994
0.63059313
0.62827784
0.626042
0.62388353
0.62180038
0.61979051
0.61785192
0.61598261
0.61418063
0.61244402
0.61077088
0.60915933
0.60760751
0.60611362
0.60467584
0.60329245
0.60196169
0.6006819
0.59945141
0.5982686
0.59713187
0.59603968
0.59499051
0.59398285
0.59301526
0.59208632
0.59119464
0.59033885
0.58951763
0.5887297
0.58797377
0.58724863
0.58655307
0.58588591
0.58524601
0.58463225
0.58404355
0.58347883
0.58293706
0.58241724
0.58191837
0.58143949
0.58097967
0.58053799
0.58011355
0.57970549
0.57931295
0.57893511
0.57857115
0.5782203
0.57788178
0.57755483
0.57723874
0.57693279
0.57663628
0.57634854
0.57606893
0.57579679
0.57553153
0.57527254
0.57501923
0.57477104
0.57452737
0.5742876
0.57405086
1
1
1
1
1
1
1
1
1
1
1
1
1
1
1
1
1
1
1
1
1
1
1
1
1
1
1
1
1
1
1
1
1
1
1
1
1
1
1
0.99999998
0.99999993
0.99999565
0.99997945
0.99993941
0.99985881
0.99971575
0.99948344
0.99913079
0.99862333
0.99792422
0.99699556
0.99579951
0.99429956
0.99246159
0.99025479
0.98765246
0.98463252
0.98117796
0.97727697
0.97292303
0.96811473
0.96285562
0.95715379
0.95102154
0.94447485
0.93753298
0.93021791
0.92255386
0.91456682
0.90628409
0.89773385
0.88894476
0.87994563
0.87076508
0.86143131
0.85197183
0.84241327
0.83278123
0.82310017
0.81339327
0.8036824
0.79398805
0.78432933
0.77472393
0.76518815
0.75573692
0.74638384
0.73714121
0.72802007
0.71903027
0.71018052
0.70147847
0.69293074
0.68454299
0.67632
0.66826573
0.66038335
0.65267533
0.6451435
0.63778905
0.63061267
0.62361452
0.61679432
0.61015137
0.60368461
0.59739265
0.5912738
0.58532613
0.57954745
0.5739354
0.56848741
0.56320079
0.55807271
0.55310024
0.54828035
0.54360993
0.53908584
0.53470488
0.53046381
0.52635939
0.52238837
0.51854748
0.51483347
0.51124312
0.50777322
0.50442057
0.50118204
0.4980545
0.49503488
0.49212016
0.48930734
0.48659351
0.48397577
0.4814513
0.47901732
0.47667111
0.47441001
0.47223141
0.47013275
0.46811155
0.46616536
0.4642918
0.46248854
0.46075333
0.45908393
0.4574782
0.45593402
0.45444935
0.45302218
0.45165056
0.4503326
0.44906646
0.44785032
0.44668244
0.44556112
0.44448469
0.44345155
0.44246013
0.44150889
0.44059636
0.4397211
0.43888168
0.43807677
0.43730502
0.43656514
0.43585588
0.43517603
0.43452439
0.43389981
0.43330117
0.43272739
0.43217739
0.43165015
0.43114466
0.43065996
0.43019508
0.42974911
0.42932115
0.42891032
0.42851576
0.42813666
0.4277722
0.4274216
0.42708408
0.42675892
0.42644537
0.42614274
0.42585034
0.4255675
0.42529356
0.42502791
0.42476994
0.42451903
0.42427464
0.42403619
0.42380314
0.42357497
0.42335113
0.42313103
0.42291387
1
1
1
1
1
1
1
1
1
1
1
1
1
1
1
1
1
1
1
1
1
1
1
1
1
1
1
1
1
1
1
1
1
1
0.99999999
0.99999995
0.9999998
0.99999949
0.99997816
0.9998994
0.99971856
0.99938263
0.99883062
0.99799622
0.99681104
0.99520754
0.99312177
0.99049568
0.98727902
0.98343072
0.97891971
0.97372536
0.96783745
0.9612558
0.95398965
0.94605678
0.93748255
0.92829882
0.91854284
0.90825616
0.89748361
0.88627224