/*--------------------------------*- C++ -*----------------------------------*\
| =========                 |                                                 |
| \\      /  F ield         | OpenFOAM: The Open Source CFD Toolbox           |
|  \\    /   O peration     | Version:  2406                                  |
|   \\  /    A nd           | Website:  www.openfoam.com                      |
|    \\/     M anipulation  |                                                 |
\*---------------------------------------------------------------------------*/
FoamFile
{
    version     2.0;
    format      ascii;
    arch        "LSB;label=32;scalar=64";
    class       volScalarField;
    location    "960";
    object      p;
}
// * * * * * * * * * * * * * * * * * * * * * * * * * * * * * * * * * * * * * //

dimensions      [0 2 -2 0 0 0 0];

internalField   nonuniform List<scalar> 
10200
(
-3.9149923e-05
0.00061714892
0.00058295916
0.00044270999
0.00032569011
0.00023474659
0.00016840005
0.00012079823
8.6277456e-05
6.1032104e-05
4.2556325e-05
2.9123596e-05
1.9501935e-05
1.2786683e-05
8.2986461e-06
5.5204966e-06
4.0546156e-06
3.593561e-06
3.8986853e-06
4.7843092e-06
6.1058131e-06
7.7505645e-06
9.6309427e-06
1.1678935e-05
1.3841927e-05
1.6079405e-05
1.8360366e-05
2.0661272e-05
2.2964436e-05
2.5256741e-05
2.7528628e-05
2.9773286e-05
3.1986016e-05
3.4163725e-05
3.6304523e-05
3.8407412e-05
4.0472033e-05
4.2498476e-05
4.4487128e-05
4.6438561e-05
4.8353441e-05
5.0232465e-05
5.2076315e-05
5.3885626e-05
5.5660959e-05
5.7402792e-05
5.9111513e-05
6.0787414e-05
6.2430701e-05
6.4041487e-05
6.5619812e-05
6.7165637e-05
6.8678866e-05
7.0159342e-05
7.1606866e-05
7.3021199e-05
7.4402075e-05
7.5749204e-05
7.7062281e-05
7.8340996e-05
7.9585033e-05
8.0794082e-05
8.1967838e-05
8.3106007e-05
8.4208311e-05
8.5274489e-05
8.6304299e-05
8.729752e-05
8.8253955e-05
8.9173429e-05
9.0055793e-05
9.0900922e-05
9.1708716e-05
9.2479102e-05
9.3212029e-05
9.3907474e-05
9.4565435e-05
9.5185937e-05
9.5769026e-05
9.6314773e-05
9.6823268e-05
9.7294626e-05
9.7728981e-05
9.8126488e-05
9.8487321e-05
9.8811676e-05
9.9099764e-05
9.9351817e-05
9.9568083e-05
9.9748829e-05
9.9894337e-05
0.00010000491
0.00010008085
0.0001001225
0.0001001302
0.00010010432
0.00010004521
9.9953282e-05
9.9828923e-05
9.9672549e-05
9.9484586e-05
9.9265471e-05
9.9015651e-05
9.8735586e-05
9.8425745e-05
9.8086605e-05
9.7718655e-05
9.732239e-05
9.6898313e-05
9.6446934e-05
9.5968772e-05
9.5464347e-05
9.4934187e-05
9.4378826e-05
9.3798797e-05
9.3194641e-05
9.2566898e-05
9.191611e-05
9.1242822e-05
9.0547578e-05
8.983092e-05
8.9093393e-05
8.8335537e-05
8.7557892e-05
8.6760992e-05
8.5945372e-05
8.5111559e-05
8.4260078e-05
8.3391449e-05
8.2506186e-05
8.1604796e-05
8.0687781e-05
7.9755636e-05
7.8808849e-05
7.7847901e-05
7.6873263e-05
7.58854e-05
7.4884769e-05
7.3871816e-05
7.2846981e-05
7.1810693e-05
7.0763373e-05
6.9705431e-05
6.8637269e-05
6.7559279e-05
6.6471845e-05
6.5375338e-05
6.4270121e-05
6.3156548e-05
6.2034963e-05
6.0905698e-05
5.9769078e-05
5.8625418e-05
5.7475022e-05
5.6318185e-05
5.5155193e-05
5.3986322e-05
5.281184e-05
5.1632005e-05
5.0447064e-05
4.9257259e-05
4.806282e-05
4.686397e-05
4.5660924e-05
4.4453886e-05
4.3243055e-05
4.2028619e-05
4.0810762e-05
3.9589655e-05
3.8365467e-05
3.7138356e-05
3.5908474e-05
3.4675964e-05
3.3440966e-05
3.2203611e-05
3.0964021e-05
2.9722316e-05
2.8478608e-05
2.7233e-05
2.5985593e-05
2.4736481e-05
2.348575e-05
2.2233483e-05
2.0979757e-05
1.9724642e-05
1.8468205e-05
1.7210506e-05
1.5951601e-05
1.469154e-05
1.3430368e-05
1.2168123e-05
1.0904831e-05
9.6405022e-06
8.3751148e-06
7.1085817e-06
5.8406756e-06
4.5707778e-06
3.297151e-06
2.0174696e-06
7.2702831e-07
-0.0001797618
0.00060864217
0.00059382346
0.00045436148
0.00034023084
0.00025023217
0.00018305593
0.00013407661
9.8108489e-05
7.1517054e-05
5.1852766e-05
3.7388361e-05
2.6873607e-05
1.938394e-05
1.4222381e-05
1.0856562e-05
8.8763587e-06
7.9639266e-06
7.8719107e-06
8.4072915e-06
9.4192216e-06
1.0789755e-05
1.2426716e-05
1.4258172e-05
1.6228125e-05
1.829313e-05
2.0419641e-05
2.258191e-05
2.4760323e-05
2.6940084e-05
2.9110164e-05
3.1262469e-05
3.3391178e-05
3.5492212e-05
3.7562822e-05
3.9601251e-05
4.160648e-05
4.3578018e-05
4.5515742e-05
4.7419776e-05
4.9290397e-05
5.1127958e-05
5.2932842e-05
5.4705419e-05
5.6446021e-05
5.8154925e-05
5.9832342e-05
6.1478413e-05
6.3093206e-05
6.467672e-05
6.6228891e-05
6.7749594e-05
6.9238651e-05
7.069584e-05
7.2120902e-05
7.3513548e-05
7.4873464e-05
7.6200323e-05
7.7493786e-05
7.875351e-05
7.9979154e-05
8.1170385e-05
8.2326875e-05
8.3448313e-05
8.4534405e-05
8.5584873e-05
8.6599462e-05
8.7577938e-05
8.8520093e-05
8.9425741e-05
9.0294723e-05
9.1126904e-05
9.1922177e-05
9.2680457e-05
9.3401687e-05
9.4085834e-05
9.473289e-05
9.5342871e-05
9.5915816e-05
9.6451788e-05
9.695087e-05
9.7413169e-05
9.7838813e-05
9.8227949e-05
9.8580744e-05
9.8897386e-05
9.9178081e-05
9.9423051e-05
9.963254e-05
9.9806805e-05
9.9946123e-05
0.00010005079
0.0001001211
0.00010015739
0.00010015999
0.00010012926
0.00010006557
9.9969283e-05
9.9840806e-05
9.9680543e-05
9.9488912e-05
9.9266342e-05
9.9013276e-05
9.8730166e-05
9.8417474e-05
9.8075671e-05
9.7705239e-05
9.7306667e-05
9.6880451e-05
9.6427096e-05
9.5947112e-05
9.5441016e-05
9.4909328e-05
9.4352576e-05
9.3771289e-05
9.3165999e-05
9.2537242e-05
9.1885556e-05
9.1211478e-05
9.0515548e-05
8.9798303e-05
8.9060282e-05
8.8302021e-05
8.7524053e-05
8.672691e-05
8.591112e-05
8.5077209e-05
8.4225695e-05
8.3357094e-05
8.2471916e-05
8.1570665e-05
8.0653839e-05
7.972193e-05
7.8775421e-05
7.781479e-05
7.6840507e-05
7.5853031e-05
7.4852818e-05
7.3840311e-05
7.2815946e-05
7.1780151e-05
7.0733343e-05
6.9675931e-05
6.8608315e-05
6.7530885e-05
6.6444021e-05
6.5348094e-05
6.4243466e-05
6.3130487e-05
6.20095e-05
6.0880838e-05
5.9744822e-05
5.8601766e-05
5.7451973e-05
5.6295737e-05
5.5133344e-05
5.3965068e-05
5.2791176e-05
5.1611924e-05
5.0427561e-05
4.9238326e-05
4.8044449e-05
4.6846153e-05
4.5643651e-05
4.4437148e-05
4.3226842e-05
4.201292e-05
4.0795566e-05
3.9574951e-05
3.8351243e-05
3.71246e-05
3.5895173e-05
3.4663107e-05
3.3428539e-05
3.2191601e-05
3.0952415e-05
2.9711101e-05
2.8467768e-05
2.7222523e-05
2.5975464e-05
2.4726685e-05
2.3476272e-05
2.2224308e-05
2.0970867e-05
1.971602e-05
1.8459831e-05
1.7202359e-05
1.5943658e-05
1.4683771e-05
1.3422739e-05
1.2160588e-05
1.089733e-05
9.6329541e-06
8.3674022e-06
7.1005389e-06
5.8320639e-06
4.5612243e-06
3.2863926e-06
2.0071495e-06
7.1667539e-07
0.00092245821
0.0008022389
0.00061871281
0.00046891893
0.00035849662
0.00027195946
0.00020519569
0.00015483752
0.00011690735
8.8316124e-05
6.6822874e-05
5.0747891e-05
3.8828788e-05
3.0115361e-05
2.3885036e-05
1.9583023e-05
1.6780346e-05
1.5143426e-05
1.4411708e-05
1.4381012e-05
1.4890991e-05
1.5815557e-05
1.7055525e-05
1.8532901e-05
2.0186427e-05
2.1968085e-05
2.3840338e-05
2.5773954e-05
2.7746271e-05
2.9739821e-05
3.1741235e-05
3.3740362e-05
3.5729576e-05
3.7703212e-05
3.9657125e-05
4.1588334e-05
4.3494738e-05
4.5374898e-05
4.7227859e-05
4.905301e-05
5.0849984e-05
5.2618569e-05
5.435865e-05
5.6070161e-05
5.7753052e-05
5.9407264e-05
6.1032715e-05
6.2629288e-05
6.4196826e-05
6.5735131e-05
6.7243968e-05
6.8723059e-05
7.0172098e-05
7.1590747e-05
7.2978646e-05
7.4335419e-05
7.5660675e-05
7.6954021e-05
7.8215057e-05
7.9443391e-05
8.0638637e-05
8.1800417e-05
8.2928373e-05
8.402216e-05
8.5081454e-05
8.6105954e-05
8.7095381e-05
8.804948e-05
8.8968022e-05
8.9850805e-05
9.0697652e-05
9.1508412e-05
9.2282962e-05
9.3021205e-05
9.3723069e-05
9.4388508e-05
9.50175e-05
9.5610049e-05
9.6166181e-05
9.6685947e-05
9.7169418e-05
9.7616689e-05
9.8027876e-05
9.8403113e-05
9.8742558e-05
9.9046385e-05
9.9314788e-05
9.9547979e-05
9.974619e-05
9.9909666e-05
0.00010003867
0.00010013349
0.00010019441
0.00010022176
0.00010021584
0.00010017702
0.00010010563
0.00010000206
9.9866683e-05
9.9699893e-05
9.9502099e-05
9.9273719e-05
9.9015185e-05
9.8726938e-05
9.8409428e-05
9.8063118e-05
9.7688477e-05
9.7285983e-05
9.6856124e-05
9.6399392e-05
9.5916288e-05
9.5407319e-05
9.4872995e-05
9.4313834e-05
9.3730355e-05
9.3123082e-05
9.249254e-05
9.1839259e-05
9.1163766e-05
9.0466593e-05
8.9748269e-05
8.9009323e-05
8.8250284e-05
8.7471678e-05
8.6674029e-05
8.5857856e-05
8.5023678e-05
8.4172008e-05
8.3303354e-05
8.2418219e-05
8.1517102e-05
8.0600493e-05
7.9668879e-05
7.8722739e-05
7.7762543e-05
7.6788756e-05
7.5801834e-05
7.4802226e-05
7.3790373e-05
7.2766704e-05
7.1731644e-05
7.0685606e-05
6.9628996e-05
6.8562209e-05
6.7485632e-05
6.6399642e-05
6.5304607e-05
6.4200885e-05
6.3088825e-05
6.1968766e-05
6.0841039e-05
5.9705963e-05
5.856385e-05
5.7415e-05
5.6259707e-05
5.5098253e-05
5.3930911e-05
5.2757946e-05
5.1579615e-05
5.0396163e-05
4.9207828e-05
4.8014841e-05
4.6817422e-05
4.5615783e-05
4.4410128e-05
4.3200655e-05
4.1987551e-05
4.0770997e-05
3.9551166e-05
3.8328223e-05
3.7102327e-05
3.5873627e-05
3.464227e-05
3.340839e-05
3.2172119e-05
3.0933581e-05
2.9692892e-05
2.8450163e-05
2.72055e-05
2.5959e-05
2.4710757e-05
2.3460856e-05
2.2209377e-05
2.0956396e-05
1.9701981e-05
1.8446193e-05
1.7189088e-05
1.5930713e-05
1.4671108e-05
1.3410299e-05
1.2148299e-05
1.0885097e-05
9.6206465e-06
8.3548426e-06
7.0874874e-06
5.8181848e-06
4.5460882e-06
3.2705554e-06
1.9945829e-06
7.0221435e-07
0.00067247939
0.00055372842
0.00047625854
0.00040407877
0.00032882562
0.00026078971
0.00020478627
0.00016030042
0.0001254077
9.8285218e-05
7.737069e-05
6.136042e-05
4.9210178e-05
4.0099051e-05
3.3382348e-05
2.8553058e-05
2.5211929e-05
2.30439e-05
2.1799767e-05
2.1282026e-05
2.1333913e-05
2.1830875e-05
2.2673902e-05
2.378429e-05
2.5099515e-05
2.6569954e-05
2.815629e-05
2.9827437e-05
3.1558879e-05
3.3331343e-05
3.5129732e-05
3.6942266e-05
3.8759798e-05
4.0575254e-05
4.2383191e-05
4.4179441e-05
4.5960822e-05
4.7724912e-05
4.9469865e-05
5.119427e-05
5.2897035e-05
5.4577301e-05
5.6234371e-05
5.7867658e-05
5.9476649e-05
6.1060872e-05
6.2619877e-05
6.4153219e-05
6.5660454e-05
6.7141126e-05
6.8594773e-05
7.002092e-05
7.141908e-05
7.2788763e-05
7.4129472e-05
7.544071e-05
7.6721982e-05
7.79728e-05
7.9192685e-05
8.0381173e-05
8.1537813e-05
8.2662175e-05
8.375385e-05
8.4812451e-05
8.5837616e-05
8.6829008e-05
8.7786319e-05
8.8709267e-05
8.9597597e-05
9.0451084e-05
9.1269531e-05
9.2052767e-05
9.2800652e-05
9.3513069e-05
9.4189932e-05
9.4831177e-05
9.543677e-05
9.6006697e-05
9.6540971e-05
9.7039627e-05
9.7502724e-05
9.7930343e-05
9.8322583e-05
9.8679568e-05
9.9001439e-05
9.9288357e-05
9.9540503e-05
9.9758075e-05
9.9941289e-05
0.00010009038
0.00010020559
0.0001002872
0.00010033548
0.00010035074
0.00010033328
0.00010028343
0.00010020154
0.00010008795
9.9943044e-05
9.9767196e-05
9.9560801e-05
9.9324264e-05
9.9058003e-05
9.8762445e-05
9.8438027e-05
9.8085199e-05
9.7704417e-05
9.7296147e-05
9.6860862e-05
9.6399045e-05
9.5911182e-05
9.5397768e-05
9.4859302e-05
9.4296289e-05
9.3709237e-05
9.3098658e-05
9.2465068e-05
9.1808984e-05
9.1130923e-05
9.0431406e-05
8.9710952e-05
8.8970081e-05
8.8209311e-05
8.7429158e-05
8.6630138e-05
8.5812763e-05
8.4977539e-05
8.4124973e-05
8.3255565e-05
8.2369809e-05
8.1468196e-05
8.0551211e-05
7.9619332e-05
7.867303e-05
7.7712771e-05
7.6739013e-05
7.5752204e-05
7.4752789e-05
7.3741202e-05
7.2717868e-05
7.1683205e-05
7.0637623e-05
6.9581521e-05
6.8515291e-05
6.7439316e-05
6.6353967e-05
6.5259609e-05
6.4156598e-05
6.3045276e-05
6.1925982e-05
6.0799041e-05
5.9664771e-05
5.8523479e-05
5.7375465e-05
5.6221018e-05
5.5060418e-05
5.3893937e-05
5.2721837e-05
5.1544373e-05
5.0361787e-05
4.9174318e-05
4.7982192e-05
4.6785629e-05
4.5584841e-05
4.4380029e-05
4.3171389e-05
4.1959108e-05
4.0743365e-05
3.9524332e-05
3.8302175e-05
3.7077049e-05
3.5849106e-05
3.4618487e-05
3.338533e-05
3.2149765e-05
3.0911913e-05
2.9671892e-05
2.8429811e-05
2.7185776e-05
2.5939883e-05
2.4692223e-05
2.3442883e-05
2.2191942e-05
2.0939472e-05
1.968554e-05
1.8430205e-05
1.7173521e-05
1.591553e-05
1.4656268e-05
1.3395755e-05
1.2133997e-05
1.0870978e-05
9.6066481e-06
8.340915e-06
7.073623e-06
5.8044721e-06
4.5328227e-06
3.2588787e-06
1.9879831e-06
7.0199303e-07
0.00046287782
0.00043169115
0.00039396325
0.00034391574
0.00028800913
0.00023605923
0.00019160951
0.00015477868
0.0001248814
0.00010100534
8.2162004e-05
6.7428009e-05
5.6014724e-05
4.7272607e-05
4.0673687e-05
3.579196e-05
3.2285101e-05
2.9878347e-05
2.8351088e-05
2.7526079e-05
2.7260811e-05
2.7440638e-05
2.7973293e-05
2.878452e-05
2.9814574e-05
3.1015414e-05
3.2348444e-05
3.3782693e-05
3.5293339e-05
3.6860523e-05
3.8468377e-05
4.0104248e-05
4.1758054e-05
4.3421776e-05
4.5089033e-05
4.675475e-05
4.8414879e-05
5.006618e-05
5.1706047e-05
5.333236e-05
5.4943376e-05
5.6537639e-05
5.8113908e-05
5.9671103e-05
6.1208262e-05
6.2724512e-05
6.4219039e-05
6.5691075e-05
6.7139884e-05
6.8564753e-05
6.996499e-05
7.1339914e-05
7.268886e-05
7.4011177e-05
7.5306229e-05
7.6573393e-05
7.7812067e-05
7.9021669e-05
8.0201635e-05
8.1351429e-05
8.2470537e-05
8.3558473e-05
8.461478e-05
8.5639027e-05
8.6630817e-05
8.7589781e-05
8.851558e-05
8.9407908e-05
9.0266487e-05
9.1091073e-05
9.1881449e-05
9.2637429e-05
9.3358855e-05
9.4045599e-05
9.4697558e-05
9.5314658e-05
9.589685e-05
9.6444109e-05
9.6956437e-05
9.7433856e-05
9.7876413e-05
9.8284176e-05
9.8657236e-05
9.8995702e-05
9.9299704e-05
9.9569392e-05
9.9804933e-05
0.00010000651
0.00010017434
0.00010030863
0.00010040962
0.00010047757
0.00010051274
0.00010051542
0.00010048591
0.00010042453
0.0001003316
0.00010020747
0.00010005249
9.9867031e-05
9.9651472e-05
9.9406206e-05
9.9131639e-05
9.8828186e-05
9.8496271e-05
9.813633e-05
9.7748808e-05
9.733416e-05
9.6892846e-05
9.6425336e-05
9.5932107e-05
9.541364e-05
9.4870424e-05
9.4302953e-05
9.3711724e-05
9.3097237e-05
9.2459998e-05
9.1800514e-05
9.1119292e-05
9.0416843e-05
8.9693676e-05
8.8950301e-05
8.8187228e-05
8.7404964e-05
8.6604015e-05
8.5784884e-05
8.4948071e-05
8.4094073e-05
8.3223382e-05
8.2336487e-05
8.1433869e-05
8.0516007e-05
7.9583371e-05
7.8636426e-05
7.7675632e-05
7.670144e-05
7.5714293e-05
7.4714629e-05
7.3702877e-05
7.2679456e-05
7.1644781e-05
7.0599254e-05
6.9543272e-05
6.847722e-05
6.7401478e-05
6.6316413e-05
6.5222386e-05
6.4119748e-05
6.3008839e-05
6.1889993e-05
6.0763533e-05
5.9629772e-05
5.8489017e-05
5.7341562e-05
5.6187694e-05
5.5027692e-05
5.3861825e-05
5.2690351e-05
5.1513524e-05
5.0331586e-05
4.914477e-05
4.7953303e-05
4.6757402e-05
4.5557278e-05
4.435313e-05
4.3145153e-05
4.1933532e-05
4.0718446e-05
3.9500065e-05
3.8278552e-05
3.7054064e-05
3.582675e-05
3.4596751e-05
3.3364204e-05
3.2129237e-05
3.0891972e-05
2.9652525e-05
2.8411006e-05
2.7167516e-05
2.5922154e-05
2.467501e-05
2.3426169e-05
2.2175708e-05
2.09237e-05
1.9670211e-05
1.8415297e-05
1.7159011e-05
1.5901394e-05
1.464248e-05
1.3382291e-05
1.2120833e-05
1.0858098e-05
9.5940535e-06
8.328644e-06
7.0617889e-06
5.7933288e-06
4.5228508e-06
3.2509983e-06
1.9844538e-06
7.0532797e-07
0.00035529857
0.00034436783
0.0003169
0.00027963592
0.00023991647
0.00020229311
0.00016883159
0.00014020811
0.00011639111
9.6958732e-05
8.1320942e-05
6.887041e-05
5.9055261e-05
5.1401138e-05
4.5511102e-05
4.1057865e-05
3.7773666e-05
3.544013e-05
3.3879278e-05
3.2946005e-05
3.2521935e-05
3.2510433e-05
3.2832574e-05
3.3423879e-05
3.4231671e-05
3.5212923e-05
3.6332502e-05
3.756173e-05
3.8877216e-05
4.0259881e-05
4.1694172e-05
4.3167408e-05
4.4669244e-05
4.6191233e-05
4.7726462e-05
4.926926e-05
5.0814954e-05
5.2359672e-05
5.390018e-05
5.5433756e-05
5.6958082e-05
5.8471159e-05
5.9971241e-05
6.145678e-05
6.2926385e-05
6.4378789e-05
6.5812821e-05
6.7227393e-05
6.8621476e-05
6.9994098e-05
7.1344334e-05
7.2671295e-05
7.3974135e-05
7.525204e-05
7.6504231e-05
7.7729962e-05
7.8928521e-05
8.0099229e-05
8.1241444e-05
8.2354556e-05
8.343799e-05
8.4491209e-05
8.5513709e-05
8.6505023e-05
8.7464719e-05
8.8392401e-05
8.9287708e-05
9.0150312e-05
9.0979919e-05
9.1776269e-05
9.2539133e-05
9.3268314e-05
9.3963644e-05
9.4624985e-05
9.5252227e-05
9.5845288e-05
9.6404112e-05
9.6928666e-05
9.7418943e-05
9.7874962e-05
9.8296759e-05
9.8684397e-05
9.9037956e-05
9.9357539e-05
9.9643268e-05
9.9895282e-05
0.00010011374
0.00010029882
0.00010045072
0.00010056964
0.00010065582
0.0001007095
0.00010073093
0.00010072039
0.00010067818
0.00010060458
0.00010049993
0.00010036455
0.00010019879
0.000100003
9.977755e-05
9.9522826e-05
9.9239218e-05
9.8927131e-05
9.8586978e-05
9.8219184e-05
9.7824181e-05
9.7402412e-05
9.6954329e-05
9.6480388e-05
9.5981057e-05
9.5456807e-05
9.4908114e-05
9.4335462e-05
9.3739339e-05
9.3120235e-05
9.2478645e-05
9.1815065e-05
9.1129995e-05
9.0423934e-05
8.9697384e-05
8.8950845e-05
8.8184818e-05
8.7399802e-05
8.6596294e-05
8.5774788e-05
8.4935778e-05
8.4079751e-05
8.3207194e-05
8.2318585e-05
8.1414401e-05
8.0495112e-05
7.9561182e-05
7.8613071e-05
7.765123e-05
7.6676105e-05
7.5688133e-05
7.4687746e-05
7.3675368e-05
7.2651412e-05
7.1616288e-05
7.0570393e-05
6.9514119e-05
6.8447848e-05
6.7371952e-05
6.6286797e-05
6.5192739e-05
6.4090123e-05
6.2979289e-05
6.1860564e-05
6.0734269e-05
5.9600714e-05
5.8460201e-05
5.7313023e-05
5.6159464e-05
5.4999799e-05
5.3834294e-05
5.2663207e-05
5.1486787e-05
5.0305274e-05
4.91189e-05
4.792789e-05
4.6732458e-05
4.5532813e-05
4.4329153e-05
4.3121672e-05
4.1910552e-05
4.0695971e-05
3.9478098e-05
3.8257095e-05
3.7033116e-05
3.5806311e-05
3.4576818e-05
3.3344774e-05
3.2110306e-05
3.0873535e-05
2.9634575e-05
2.8393536e-05
2.715052e-05
2.5905622e-05
2.4658934e-05
2.3410538e-05
2.2160513e-05
2.0908929e-05
1.9655852e-05
1.840134e-05
1.7145444e-05
1.5888208e-05
1.4629667e-05
1.3369848e-05
1.2108766e-05
1.084643e-05
9.5828346e-06
8.3179704e-06
7.0518344e-06
5.7843908e-06
4.5153994e-06
3.2457252e-06
1.9827275e-06
7.0902078e-07
0.00026842877
0.00026148786
0.00024235122
0.00021692716
0.00018998197
0.00016382853
0.00014001517
0.00011933081
0.00010188882
8.7461772e-05
7.5693688e-05
6.6197182e-05
5.8606085e-05
5.2599024e-05
4.7903704e-05
4.4293229e-05
4.1580066e-05
3.9609629e-05
3.8254398e-05
3.7408978e-05
3.6986073e-05
3.6913228e-05
3.7130206e-05
3.7586861e-05
3.8241414e-05
3.9059035e-05
4.0010671e-05
4.1072083e-05
4.2223038e-05
4.344664e-05
4.4728764e-05
4.605759e-05
4.7423211e-05
4.8817302e-05
5.0232846e-05
5.1663908e-05
5.3105442e-05
5.4553134e-05
5.600327e-05
5.7452629e-05
5.8898396e-05
6.0338082e-05
6.1769474e-05
6.3190582e-05
6.4599599e-05
6.5994874e-05
6.7374884e-05
6.8738217e-05
7.0083553e-05
7.1409657e-05
7.2715368e-05
7.399959e-05
7.5261288e-05
7.6499488e-05
7.7713265e-05
7.8901751e-05
8.0064125e-05
8.1199619e-05
8.2307508e-05
8.3387117e-05
8.4437817e-05
8.5459022e-05
8.6450191e-05
8.7410827e-05
8.8340471e-05
8.9238709e-05
9.0105163e-05
9.0939496e-05
9.1741404e-05
9.2510622e-05
9.3246917e-05
9.3950089e-05
9.461997e-05
9.5256422e-05
9.5859334e-05
9.6428624e-05
9.6964237e-05
9.746614e-05
9.7934328e-05
9.8368817e-05
9.8769645e-05
9.9136871e-05
9.9470575e-05
9.9770857e-05
0.00010003784
0.00010027165
0.00010047245
0.00010064041
0.00010077572
0.00010087858
0.00010094922
0.00010098787
0.00010099478
0.00010097022
0.00010091447
0.00010082783
0.0001007106
0.00010056311
0.00010038569
0.00010017869
9.9942464e-05
9.9677389e-05
9.9383847e-05
9.9062231e-05
9.8712945e-05
9.8336404e-05
9.7933031e-05
9.7503257e-05
9.7047523e-05
9.6566278e-05
9.6059977e-05
9.5529082e-05
9.4974062e-05
9.4395388e-05
9.3793539e-05
9.3168997e-05
9.2522245e-05
9.1853773e-05
9.1164069e-05
9.0453625e-05
8.9722932e-05
8.8972484e-05
8.8202771e-05
8.7414285e-05
8.6607514e-05
8.5782946e-05
8.4941065e-05
8.4082351e-05
8.3207283e-05
8.2316334e-05
8.1409971e-05
8.0488658e-05
7.9552853e-05
7.8603008e-05
7.7639569e-05
7.6662975e-05
7.5673658e-05
7.4672043e-05
7.3658548e-05
7.2633582e-05
7.1597548e-05
7.055084e-05
6.9493843e-05
6.8426934e-05
6.7350482e-05
6.6264848e-05
6.5170383e-05
6.4067428e-05
6.2956319e-05
6.183738e-05
6.0710926e-05
5.9577266e-05
5.8436698e-05
5.728951e-05
5.6135985e-05
5.4976393e-05
5.3810999e-05
5.2640057e-05
5.1463813e-05
5.0282506e-05
4.9096364e-05
4.7905611e-05
4.6710458e-05
4.5511111e-05
4.4307768e-05
4.310062e-05
4.1889847e-05
4.0675626e-05
3.9458123e-05
3.82375e-05
3.7013909e-05
3.5787497e-05
3.4558405e-05
3.3326765e-05
3.2092703e-05
3.085634e-05
2.961779e-05
2.837716e-05
2.7134553e-05
2.5890063e-05
2.4643779e-05
2.3395786e-05
2.214616e-05
2.0894974e-05
1.9642293e-05
1.8388175e-05
1.7132674e-05
1.5875836e-05
1.4617703e-05
1.3358308e-05
1.2097682e-05
1.0835851e-05
9.5728415e-06
8.3086884e-06
7.0434529e-06
5.7771907e-06
4.5097728e-06
3.2421541e-06
1.9820145e-06
7.126873e-07
0.00019350073
0.00018790076
0.00017428274
0.00015753956
0.00014020585
0.00012334638
0.00010800742
9.4711141e-05
8.3482026e-05
7.415575e-05
6.6505646e-05
6.0286733e-05
5.5269984e-05
5.1258152e-05
4.8086629e-05
4.5619667e-05
4.3745826e-05
4.2373429e-05
4.1426576e-05
4.0841946e-05
4.0566318e-05
4.0554665e-05
4.0768672e-05
4.1175592e-05
4.1747342e-05
4.2459773e-05
4.3292076e-05
4.4226296e-05
4.5246915e-05
4.6340506e-05
4.7495433e-05
4.8701598e-05
4.9950219e-05
5.1233641e-05
5.2545175e-05
5.3878955e-05
5.5229819e-05
5.6593204e-05
5.796506e-05
5.9341774e-05
6.0720103e-05
6.2097125e-05
6.347019e-05
6.4836886e-05
6.6195001e-05
6.7542505e-05
6.8877519e-05
7.0198306e-05
7.1503251e-05
7.2790849e-05
7.4059697e-05
7.5308486e-05
7.6535994e-05
7.7741077e-05
7.8922672e-05
8.0079783e-05
8.1211487e-05
8.2316924e-05
8.3395298e-05
8.4445874e-05
8.5467973e-05
8.6460972e-05
8.7424302e-05
8.8357444e-05
8.9259927e-05
9.0131326e-05
9.0971263e-05
9.1779399e-05
9.2555437e-05
9.3299116e-05
9.4010213e-05
9.4688538e-05
9.5333934e-05
9.5946273e-05
9.6525459e-05
9.707142e-05
9.7584112e-05
9.8063514e-05
9.8509632e-05
9.892249e-05
9.9302135e-05
9.9648635e-05
9.9962076e-05
0.00010024256
0.00010049022
0.00010070519
0.00010088762
0.0001010377
0.00010115561
0.00010124155
0.00010129574
0.00010131843
0.00010130986
0.00010127028
0.00010119999
0.00010109926
0.00010096841
0.00010080774
0.00010061759
0.00010039829
0.00010015021
9.9873694e-05
9.9569131e-05
9.9236902e-05
9.8877403e-05
9.8491041e-05
9.8078229e-05
9.7639391e-05
9.717496e-05
9.6685373e-05
9.6171077e-05
9.5632525e-05
9.5070178e-05
9.4484498e-05
9.3875956e-05
9.3245022e-05
9.2592174e-05
9.191789e-05
9.1222652e-05
9.0506942e-05
8.9771243e-05
8.901604e-05
8.8241815e-05
8.7449052e-05
8.6638231e-05
8.5809831e-05
8.4964329e-05
8.4102199e-05
8.322391e-05
8.2329928e-05
8.1420714e-05
8.0496725e-05
7.9558411e-05
7.8606219e-05
7.7640586e-05
7.6661946e-05
7.5670724e-05
7.4667341e-05
7.3652206e-05
7.2625725e-05
7.1588294e-05
7.0540301e-05
6.9482126e-05
6.8414143e-05
6.7336714e-05
6.6250195e-05
6.5154932e-05
6.4051264e-05
6.2939521e-05
6.1820022e-05
6.069308e-05
5.9558998e-05
5.841807e-05
5.7270584e-05
5.6116814e-05
5.4957032e-05
5.3791496e-05
5.2620458e-05
5.1444162e-05
5.0262843e-05
4.9076727e-05
4.7886033e-05
4.6690973e-05
4.549175e-05
4.4288557e-05
4.3081585e-05
4.1871012e-05
4.0657011e-05
3.9439749e-05
3.8219384e-05
3.6996068e-05
3.5769945e-05
3.4541155e-05
3.3309828e-05
3.207609e-05
3.084006e-05
2.9601851e-05
2.836157e-05
2.7119317e-05
2.5875187e-05
2.4629269e-05
2.3381647e-05
2.2132397e-05
2.0881592e-05
1.9629299e-05
1.8375578e-05
1.7120486e-05
1.5864073e-05
1.4606388e-05
1.3347474e-05
1.2087376e-05
1.082614e-05
9.56382e-06
8.3004871e-06
7.036249e-06
5.7712207e-06
4.5053352e-06
3.2395566e-06
1.9816833e-06
7.1603246e-07
0.00012791036
0.00012070142
0.00011020045
0.00010050035
9.114388e-05
8.2378414e-05
7.4785675e-05
6.8392833e-05
6.3057136e-05
5.8661325e-05
5.5076681e-05
5.2167892e-05
4.9818123e-05
4.7934125e-05
4.6442214e-05
4.5284584e-05
4.4416079e-05
4.380107e-05
4.3410848e-05
4.3221677e-05
4.3213395e-05
4.3368429e-05
4.3671123e-05
4.4107295e-05
4.466394e-05
4.5329051e-05
4.6091493e-05
4.6940929e-05
4.7867761e-05
4.886309e-05
4.9918676e-05
5.1026906e-05
5.2180758e-05
5.3373761e-05
5.4599966e-05
5.5853902e-05
5.7130543e-05
5.8425269e-05
5.9733836e-05
6.105234e-05
6.2377188e-05
6.3705068e-05
6.5032925e-05
6.6357938e-05
6.7677499e-05
6.8989192e-05
7.0290782e-05
7.1580194e-05
7.2855508e-05
7.411494e-05
7.5356836e-05
7.6579665e-05
7.7782009e-05
7.8962554e-05
8.0120088e-05
8.1253495e-05
8.2361744e-05
8.3443893e-05
8.4499076e-05
8.5526505e-05
8.6525461e-05
8.7495294e-05
8.8435417e-05
8.9345303e-05
9.022448e-05
9.1072531e-05
9.1889087e-05
9.2673827e-05
9.3426472e-05
9.4146785e-05
9.4834567e-05
9.5489655e-05
9.6111916e-05
9.6701252e-05
9.7257592e-05
9.7780892e-05
9.8271134e-05
9.8728322e-05
9.9152484e-05
9.9543669e-05
9.9901945e-05
0.0001002274
0.00010052013
0.00010078027
0.00010100795
0.00010120333
0.00010136657
0.00010149786
0.00010159739
0.00010166538
0.00010170206
0.00010170766
0.00010168244
0.00010162665
0.00010154059
0.00010142453
0.00010127878
0.00010110366
0.00010089949
0.00010066661
0.00010040536
0.00010011612
9.9799238e-05
9.9455106e-05
9.9084112e-05
9.8686655e-05
9.8263142e-05
9.7813992e-05
9.7339628e-05
9.6840482e-05
9.6316992e-05
9.5769604e-05
9.5198767e-05
9.460494e-05
9.3988582e-05
9.335016e-05
9.2690139e-05
9.2008991e-05
9.1307189e-05
9.0585207e-05
8.984352e-05
8.9082604e-05
8.8302934e-05
8.7504984e-05
8.6689228e-05
8.5856137e-05
8.5006179e-05
8.413982e-05
8.3257522e-05
8.2359744e-05
8.1446939e-05
8.0519557e-05
7.9578041e-05
7.8622829e-05
7.7654354e-05
7.6673041e-05
7.5679311e-05
7.4673575e-05
7.3656239e-05
7.2627701e-05
7.1588352e-05
7.0538573e-05
6.947874e-05
6.8409218e-05
6.7330368e-05
6.6242538e-05
6.514607e-05
6.4041297e-05
6.2928545e-05
6.1808128e-05
6.0680355e-05
5.9545524e-05
5.8403927e-05
5.7255843e-05
5.6101548e-05
5.4941305e-05
5.3775372e-05
5.2603996e-05
5.1427418e-05
5.0245869e-05
4.9059573e-05
4.7868745e-05
4.6673594e-05
4.5474321e-05
4.4271117e-05
4.3064168e-05
4.1853652e-05
4.063974e-05
3.9422594e-05
3.8202372e-05
3.6979224e-05
3.5753292e-05
3.4524714e-05
3.3293618e-05
3.206013e-05
3.0824367e-05
2.9586439e-05
2.8346454e-05
2.7104511e-05
2.5860704e-05
2.4615121e-05
2.3367847e-05
2.2118958e-05
2.0868528e-05
1.9616625e-05
1.8363312e-05
1.7108649e-05
1.5852693e-05
1.4595497e-05
1.3337117e-05
1.2077609e-05
1.0817038e-05
9.5554785e-06
8.2930287e-06
7.0298255e-06
5.7660161e-06
4.5015627e-06
3.2373938e-06
1.981286e-06
7.1878828e-07
7.4048383e-05
5.1981611e-05
4.487556e-05
4.5168779e-05
4.4025207e-05
4.2789435e-05
4.244081e-05
4.245666e-05
4.2533773e-05
4.2654403e-05
4.2810473e-05
4.2978702e-05
4.3147059e-05
4.3313515e-05
4.3480573e-05
4.3653935e-05
4.384182e-05
4.4053843e-05
4.4299945e-05
4.4589574e-05
4.4931092e-05
4.5331393e-05
4.5795697e-05
4.632751e-05
4.6928685e-05
4.7599566e-05
4.8339178e-05
4.9145431e-05
5.001534e-05
5.0945223e-05
5.1930888e-05
5.2967792e-05
5.4051187e-05
5.5176226e-05
5.6338061e-05
5.7531913e-05
5.8753124e-05
5.9997202e-05
6.1259845e-05
6.2536958e-05
6.3824663e-05
6.5119305e-05
6.641745e-05
6.771588e-05
6.9011587e-05
7.0301768e-05
7.1583815e-05
7.2855303e-05
7.4113987e-05
7.5357789e-05
7.6584789e-05
7.7793219e-05
7.8981451e-05
8.0147992e-05
8.1291478e-05
8.2410661e-05
8.3504407e-05
8.4571686e-05
8.561157e-05
8.6623221e-05
8.7605889e-05
8.8558907e-05
8.948168e-05
9.0373688e-05
9.1234472e-05
9.2063638e-05
9.2860844e-05
9.3625803e-05
9.4358275e-05
9.5058062e-05
9.5725009e-05
9.6358996e-05
9.695994e-05
9.7527785e-05
9.8062507e-05
9.8564107e-05
9.903261e-05
9.9468063e-05
9.9870535e-05
0.00010024011
0.0001005769
0.00010088102
0.0001011526
0.00010139181
0.0001015988
0.00010177376
0.00010191688
0.00010202835
0.00010210841
0.00010215727
0.00010217518
0.0001021624
0.00010211917
0.00010204578
0.00010194252
0.00010180968
0.00010164757
0.0001014565
0.00010123681
0.00010098883
0.00010071291
0.00010040942
0.00010007871
9.9721175e-05
9.9337194e-05
9.8927164e-05
9.8491489e-05
9.8030581e-05
9.7544858e-05
9.7034747e-05
9.6500681e-05
9.5943099e-05
9.5362443e-05
9.4759161e-05
9.4133709e-05
9.3486544e-05
9.2818127e-05
9.2128919e-05
9.1419387e-05
9.0689996e-05
8.9941214e-05
8.9173508e-05
8.8387345e-05
8.7583191e-05
8.6761512e-05
8.592277e-05
8.5067426e-05
8.4195939e-05
8.3308761e-05
8.2406344e-05
8.1489133e-05
8.055757e-05
7.9612091e-05
7.8653127e-05
7.7681103e-05
7.6696438e-05
7.5699543e-05
7.4690825e-05
7.3670681e-05
7.2639504e-05
7.1597676e-05
7.0545575e-05
6.9483568e-05
6.8412017e-05
6.7331273e-05
6.624168e-05
6.5143576e-05
6.4037286e-05
6.2923132e-05
6.1801423e-05
6.0672461e-05
5.9536542e-05
5.839395e-05
5.7244964e-05
5.608985e-05
5.4928872e-05
5.3762279e-05
5.2590318e-05
5.1413224e-05
5.0231224e-05
4.904454e-05
4.7853383e-05
4.6657959e-05
4.5458464e-05
4.4255088e-05
4.3048013e-05
4.1837414e-05
4.062346e-05
3.9406312e-05
3.8186123e-05
3.6963041e-05
3.5737207e-05
3.4508757e-05
3.3277817e-05
3.204451e-05
3.0808953e-05
2.9571255e-05
2.8331521e-05
2.7089851e-05
2.5846336e-05
2.4601067e-05
2.3354125e-05
2.210559e-05
2.0855535e-05
1.960403e-05
1.835114e-05
1.7096931e-05
1.5841462e-05
1.4584796e-05
1.3326995e-05
1.2068128e-05
1.0808272e-05
9.5475182e-06
8.2859808e-06
7.0238114e-06
5.7611709e-06
4.4980308e-06
3.2352611e-06
1.9805056e-06
7.2074448e-07
8.1103583e-05
-7.8595481e-06
-2.3831077e-05
-1.1143075e-05
-1.3458708e-06
6.0430285e-06
1.2867158e-05
1.8778424e-05
2.3651443e-05
2.7674328e-05
3.1021654e-05
3.3816082e-05
3.6155124e-05
3.8118397e-05
3.9770647e-05
4.1166199e-05
4.235239e-05
4.3371401e-05
4.4261112e-05
4.5055451e-05
4.5784477e-05
4.6474379e-05
4.7147497e-05
4.7822414e-05
4.8514133e-05
4.9234334e-05
4.9991682e-05
5.0792182e-05
5.1639536e-05
5.2535503e-05
5.3480237e-05
5.4472603e-05
5.5510455e-05
5.6590878e-05
5.7710402e-05
5.8865176e-05
6.005111e-05
6.1263993e-05
6.2499587e-05
6.3753695e-05
6.502222e-05
6.6301201e-05
6.7586846e-05
6.8875545e-05
7.016389e-05
7.1448673e-05
7.2726895e-05
7.399576e-05
7.5252675e-05
7.6495242e-05
7.772125e-05
7.8928672e-05
8.0115653e-05
8.1280503e-05
8.2421687e-05
8.3537819e-05
8.4627651e-05
8.5690064e-05
8.6724063e-05
8.7728765e-05
8.8703392e-05
8.9647265e-05
9.0559795e-05
9.1440477e-05
9.2288882e-05
9.3104651e-05
9.3887489e-05
9.463716e-05
9.5353481e-05
9.6036316e-05
9.6685573e-05
9.7301198e-05
9.7883174e-05
9.8431515e-05
9.894626e-05
9.9427478e-05
9.9875258e-05
0.00010028971
0.00010067096
0.00010101916
0.00010133446
0.00010161704
0.00010186708
0.00010208479
0.00010227037
0.00010242404
0.00010254604
0.00010263659
0.00010269595
0.00010272438
0.00010272214
0.0001026895
0.00010262676
0.0001025342