/*--------------------------------*- C++ -*----------------------------------*\
| =========                 |                                                 |
| \\      /  F ield         | OpenFOAM: The Open Source CFD Toolbox           |
|  \\    /   O peration     | Version:  2406                                  |
|   \\  /    A nd           | Website:  www.openfoam.com                      |
|    \\/     M anipulation  |                                                 |
\*---------------------------------------------------------------------------*/
FoamFile
{
    version     2.0;
    format      ascii;
    arch        "LSB;label=32;scalar=64";
    class       volScalarField;
    location    "604";
    object      p;
}
// * * * * * * * * * * * * * * * * * * * * * * * * * * * * * * * * * * * * * //

dimensions      [0 2 -2 0 0 0 0];

internalField   nonuniform List<scalar> 
7600
(
0.00010860769
0.0001088409
0.00011174908
0.00011716189
0.00012382038
0.0001307181
0.00013717521
0.00014279311
0.00014739505
0.00015095679
0.00015354653
0.00015528038
0.00015629201
0.00015671436
0.00015666957
0.00015626438
0.00015558886
0.00015471698
0.00015370818
0.00015260931
0.00015145662
0.00015027765
0.00014909284
0.00014791701
0.00014676053
0.00014563033
0.00014453069
0.00014346386
0.00014243063
0.00014143067
0.00014046287
0.00013952561
0.00013861689
0.00013773451
0.00013687617
0.00013603955
0.00013522234
0.00013442232
0.00013363737
0.00013286548
0.00013210475
0.00013135344
0.00013060993
0.00012987272
0.00012914047
0.00012841193
0.00012768599
0.00012696163
0.00012623795
0.00012551416
0.00012478953
0.00012406344
0.00012333533
0.00012260474
0.00012187125
0.00012113451
0.00012039425
0.00011965021
0.00011890222
0.00011815013
0.00011739382
0.00011663324
0.00011586834
0.00011509912
0.00011432559
0.00011354779
0.00011276579
0.00011197966
0.0001111895
0.00011039542
0.00010959752
0.00010879595
0.00010799083
0.00010718231
0.00010637054
0.00010555565
0.0001047378
0.00010391715
0.00010309384
0.00010226803
0.00010143985
0.00010060946
9.9777007e-05
9.8942618e-05
9.8106431e-05
9.7268578e-05
9.6429183e-05
9.5588367e-05
9.4746245e-05
9.3902927e-05
9.3058518e-05
9.2213117e-05
9.1366817e-05
9.0519706e-05
8.9671869e-05
8.8823382e-05
8.7974319e-05
8.7124747e-05
8.6274729e-05
8.5424324e-05
8.4573584e-05
8.372256e-05
8.2871298e-05
8.2019837e-05
8.1168217e-05
8.0316471e-05
7.9464631e-05
7.8612724e-05
7.7760775e-05
7.6908806e-05
7.6056837e-05
7.5204884e-05
7.4352964e-05
7.3501088e-05
7.2649268e-05
7.1797514e-05
7.0945833e-05
7.0094231e-05
6.9242714e-05
6.8391286e-05
6.753995e-05
6.6688707e-05
6.5837559e-05
6.4986506e-05
6.4135548e-05
6.3284684e-05
6.2433913e-05
6.1583233e-05
6.0732642e-05
5.9882138e-05
5.9031718e-05
5.8181379e-05
5.7331119e-05
5.6480934e-05
5.5630822e-05
5.4780778e-05
5.39308e-05
5.3080885e-05
5.2231029e-05
5.1381229e-05
5.0531482e-05
4.9681785e-05
4.8832135e-05
4.7982529e-05
4.7132965e-05
4.6283439e-05
4.5433949e-05
4.4584492e-05
4.3735066e-05
4.2885668e-05
4.2036297e-05
4.118695e-05
4.0337625e-05
3.948832e-05
3.8639034e-05
3.7789764e-05
3.6940508e-05
3.6091267e-05
3.5242037e-05
3.4392817e-05
3.3543607e-05
3.2694404e-05
3.1845208e-05
3.0996018e-05
3.0146833e-05
2.9297651e-05
2.8448473e-05
2.7599296e-05
2.6750121e-05
2.5900947e-05
2.5051773e-05
2.4202598e-05
2.3353423e-05
2.2504246e-05
2.1655068e-05
2.0805888e-05
1.9956706e-05
1.9107521e-05
1.8258333e-05
1.7409143e-05
1.6559949e-05
1.5710753e-05
1.4861553e-05
1.401235e-05
1.3163144e-05
1.2313935e-05
1.1464723e-05
1.0615507e-05
9.7662891e-06
8.917068e-06
8.0678441e-06
7.2186176e-06
6.3693886e-06
5.5201571e-06
4.670923e-06
3.8216863e-06
2.972446e-06
2.1232016e-06
1.273954e-06
4.2468016e-07
0.00010851448
0.00010878339
0.00011150716
0.00011655136
0.00012274136
0.00012920146
0.00013533537
0.00014077155
0.00014532363
0.00014894165
0.00015166427
0.00015357981
0.00015479903
0.00015543747
0.00015560495
0.00015540006
0.00015490797
0.00015420017
0.00015333531
0.00015236056
0.00015131326
0.00015022241
0.00014911017
0.00014799308
0.00014688326
0.00014578925
0.00014471683
0.00014366962
0.00014264961
0.00014165754
0.00014069325
0.00013975589
0.00013884419
0.00013795653
0.00013709111
0.00013624604
0.00013541938
0.0001346092
0.00013381362
0.00013303084
0.00013225914
0.00013149691
0.00013074263
0.0001299949
0.00012925245
0.00012851407
0.0001277787
0.00012704536
0.00012631315
0.00012558129
0.00012484907
0.00012411585
0.0001233811
0.00012264431
0.00012190508
0.00012116304
0.00012041788
0.00011966937
0.00011891728
0.00011816146
0.00011740178
0.00011663816
0.00011587054
0.00011509889
0.00011432321
0.00011354352
0.00011275987
0.00011197232
0.00011118094
0.00011038583
0.00010958709
0.00010878483
0.00010797917
0.00010717025
0.00010635819
0.00010554313
0.00010472521
0.00010390457
0.00010308134
0.00010225568
0.00010142773
0.0001005976
9.9765455e-05
9.893141e-05
9.8095598e-05
9.7258143e-05
9.6419166e-05
9.5578781e-05
9.4737099e-05
9.3894227e-05
9.3050266e-05
9.2205312e-05
9.1359455e-05
9.0512782e-05
8.9665374e-05
8.8817306e-05
8.796865e-05
8.7119473e-05
8.6269836e-05
8.5419797e-05
8.4569409e-05
8.3718721e-05
8.2867778e-05
8.2016622e-05
8.116529e-05
8.0313816e-05
7.9462232e-05
7.8610565e-05
7.7758842e-05
7.6907083e-05
7.6055311e-05
7.5203541e-05
7.4351789e-05
7.350007e-05
7.2648395e-05
7.1796773e-05
7.0945213e-05
7.0093723e-05
6.9242307e-05
6.8390971e-05
6.7539717e-05
6.6688549e-05
6.5837468e-05
6.4986475e-05
6.413557e-05
6.3284754e-05
6.2434024e-05
6.158338e-05
6.073282e-05
5.9882343e-05
5.9031945e-05
5.8181625e-05
5.733138e-05
5.6481207e-05
5.5631104e-05
5.4781067e-05
5.3931093e-05
5.308118e-05
5.2231324e-05
5.1381523e-05
5.0531773e-05
4.9682072e-05
4.8832417e-05
4.7982805e-05
4.7133233e-05
4.6283699e-05
4.5434201e-05
4.4584735e-05
4.3735299e-05
4.2885892e-05
4.203651e-05
4.1187153e-05
4.0337818e-05
3.9488502e-05
3.8639205e-05
3.7789925e-05
3.694066e-05
3.6091408e-05
3.5242168e-05
3.4392938e-05
3.3543718e-05
3.2694507e-05
3.1845302e-05
3.0996104e-05
3.014691e-05
2.9297721e-05
2.8448535e-05
2.7599351e-05
2.6750169e-05
2.5900989e-05
2.5051809e-05
2.4202629e-05
2.3353448e-05
2.2504267e-05
2.1655084e-05
2.08059e-05
1.9956714e-05
1.9107525e-05
1.8258335e-05
1.7409142e-05
1.6559946e-05
1.5710747e-05
1.4861546e-05
1.4012341e-05
1.3163134e-05
1.2313924e-05
1.146471e-05
1.0615494e-05
9.7662756e-06
8.9170541e-06
8.0678299e-06
7.2186031e-06
6.3693738e-06
5.520142e-06
4.6709077e-06
3.8216706e-06
2.9724301e-06
2.1231865e-06
1.2739428e-06
4.2467666e-07
0.00010469858
0.00010581187
0.00010928074
0.00011482274
0.00012124262
0.00012776177
0.00013388144
0.00013929463
0.0001438496
0.00014750918
0.00015031123
0.00015233677
0.00015368697
0.00015446791
0.00015478134
0.00015471953
0.00015436311
0.00015378057
0.00015302881
0.00015215426
0.00015119417
0.000150178
0.00014912866
0.00014806366
0.00014699615
0.00014593576
0.00014488931
0.00014386144
0.00014285506
0.00014187176
0.00014091214
0.00013997605
0.00013906281
0.00013817133
0.00013730027
0.00013644812
0.00013561328
0.00013479411
0.00013398897
0.00013319627
0.00013241445
0.00013164204
0.00013087765
0.00013011998
0.0001293678
0.00012861999
0.00012787553
0.00012713346
0.00012639293
0.00012565316
0.00012491345
0.00012417318
0.0001234318
0.00012268882
0.00012194381
0.0001211964
0.00012044629
0.00011969319
0.0001189369
0.00011817723
0.00011741404
0.00011664723
0.00011587673
0.00011510249
0.00011432449
0.00011354275
0.00011275728
0.00011196813
0.00011117537
0.00011037907
0.00010957932
0.00010877621
0.00010796986
0.00010716038
0.00010634789
0.00010553251
0.00010471437
0.00010389361
0.00010307035
0.00010224472
0.00010141686
0.00010058689
9.9754945e-05
9.8921146e-05
9.8085614e-05
9.724847e-05
9.6409826e-05
9.5569795e-05
9.4728482e-05
9.3885989e-05
9.3042414e-05
9.2197849e-05
9.1352383e-05
9.0506099e-05
8.9659076e-05
8.8811387e-05
8.7963102e-05
8.7114287e-05
8.6265002e-05
8.5415303e-05
8.4565243e-05
8.371487e-05
8.2864229e-05
8.201336e-05
8.1162302e-05
8.0311089e-05
7.9459751e-05
7.8608318e-05
7.7756813e-05
7.690526e-05
7.605368e-05
7.520209e-05
7.4350506e-05
7.3498943e-05
7.2647412e-05
7.1795923e-05
7.0944487e-05
7.0093109e-05
6.9241797e-05
6.8390555e-05
6.7539388e-05
6.6688298e-05
6.5837288e-05
6.4986358e-05
6.413551e-05
6.3284744e-05
6.243406e-05
6.1583456e-05
6.0732931e-05
5.9882484e-05
5.9032113e-05
5.8181815e-05
5.7331589e-05
5.6481432e-05
5.5631341e-05
5.4781314e-05
5.3931348e-05
5.308144e-05
5.2231587e-05
5.1381788e-05
5.0532038e-05
4.9682335e-05
4.8832677e-05
4.798306e-05
4.7133484e-05
4.6283944e-05
4.5434438e-05
4.4584965e-05
4.3735521e-05
4.2886105e-05
4.2036715e-05
4.1187349e-05
4.0338004e-05
3.9488679e-05
3.8639373e-05
3.7790083e-05
3.6940808e-05
3.6091546e-05
3.5242297e-05
3.4393059e-05
3.354383e-05
3.269461e-05
3.1845397e-05
3.099619e-05
3.0146988e-05
2.9297791e-05
2.8448598e-05
2.7599408e-05
2.6750219e-05
2.5901033e-05
2.5051847e-05
2.4202661e-05
2.3353476e-05
2.250429e-05
2.1655103e-05
2.0805914e-05
1.9956724e-05
1.9107533e-05
1.8258339e-05
1.7409143e-05
1.6559945e-05
1.5710744e-05
1.4861541e-05
1.4012335e-05
1.3163126e-05
1.2313914e-05
1.14647e-05
1.0615483e-05
9.7662639e-06
8.9170418e-06
8.0678172e-06
7.21859e-06
6.3693605e-06
5.5201285e-06
4.670894e-06
3.8216569e-06
2.9724168e-06
2.1231744e-06
1.2739348e-06
4.2467725e-07
9.5639609e-05
9.9119e-05
0.00010479462
0.00011200674
0.00011953115
0.00012669511
0.00013314373
0.00013869714
0.0001432947
0.00014695722
0.00014975563
0.0001517871
0.00015315857
0.00015397612
0.00015433866
0.00015433465
0.0001540409
0.00015352253
0.00015283378
0.00015201908
0.00015111432
0.0001501481
0.00014914289
0.0001481161
0.000147081
0.00014604749
0.0001450228
0.000144012
0.00014301849
0.00014204433
0.0001410906
0.0001401576
0.00013924504
0.00013835223
0.00013747816
0.00013662163
0.00013578132
0.00013495581
0.00013414369
0.00013334352
0.00013255391
0.00013177352
0.00013100107
0.00013023534
0.00012947519
0.00012871956
0.00012796748
0.00012721803
0.00012647038
0.00012572379
0.00012497758
0.00012423113
0.0001234839
0.0001227354
0.00012198521
0.00012123295
0.0001204783
0.00011972099
0.00011896079
0.00011819751
0.00011743101
0.00011666116
0.00011588787
0.0001151111
0.00011433081
0.000113547
0.00011275967
0.00011196887
0.00011117464
0.00011037704
0.00010957616
0.00010877207
0.00010796488
0.00010715468
0.00010634159
0.00010552573
0.0001047072
0.00010388614
0.00010306266
0.00010223689
0.00010140895
0.00010057896
9.974705e-05
9.8913329e-05
9.8077915e-05
9.7240923e-05
9.6402461e-05
9.5562636e-05
9.4721549e-05
9.38793e-05
9.3035982e-05
9.2191684e-05
9.1346492e-05
9.0500486e-05
8.9653744e-05
8.8806336e-05
8.7958331e-05
8.7109792e-05
8.6260778e-05
8.5411345e-05
8.4561544e-05
8.3711423e-05
8.2861025e-05
8.2010391e-05
8.1159559e-05
8.0308561e-05
7.9457429e-05
7.8606191e-05
7.7754872e-05
7.6903496e-05
7.6052081e-05
7.5200648e-05
7.4349211e-05
7.3497785e-05
7.2646383e-05
7.1795014e-05
7.0943689e-05
7.0092414e-05
6.9241198e-05
6.8390044e-05
6.7538958e-05
6.6687942e-05
6.5837e-05
6.4986132e-05
6.413534e-05
6.3284625e-05
6.2433986e-05
6.1583423e-05
6.0732935e-05
5.9882521e-05
5.9032178e-05
5.8181906e-05
5.7331702e-05
5.6481563e-05
5.5631488e-05
5.4781475e-05
5.393152e-05
5.308162e-05
5.2231775e-05
5.138198e-05
5.0532234e-05
4.9682533e-05
4.8832875e-05
4.7983258e-05
4.713368e-05
4.6284137e-05
4.5434628e-05
4.458515e-05
4.3735702e-05
4.2886281e-05
4.2036885e-05
4.1187512e-05
4.033816e-05
3.9488829e-05
3.8639515e-05
3.7790218e-05
3.6940936e-05
3.6091667e-05
3.5242411e-05
3.4393165e-05
3.3543929e-05
3.2694702e-05
3.1845482e-05
3.0996268e-05
3.014706e-05
2.9297857e-05
2.8448657e-05
2.7599461e-05
2.6750267e-05
2.5901075e-05
2.5051884e-05
2.4202694e-05
2.3353504e-05
2.2504314e-05
2.1655123e-05
2.0805931e-05
1.9956738e-05
1.9107543e-05
1.8258347e-05
1.7409148e-05
1.6559948e-05
1.5710745e-05
1.486154e-05
1.4012332e-05
1.3163122e-05
1.2313909e-05
1.1464694e-05
1.0615476e-05
9.766256e-06
8.9170333e-06
8.0678082e-06
7.2185807e-06
6.3693509e-06
5.5201187e-06
4.6708843e-06
3.8216476e-06
2.9724084e-06
2.1231676e-06
1.2739317e-06
4.2467949e-07
8.0514478e-05
8.8868837e-05
9.8736693e-05
0.0001088015
0.00011810373
0.00012625077
0.00013315708
0.00013886185
0.00014345183
0.00014703814
0.00014974336
0.00015169131
0.00015300031
0.00015377919
0.00015412511
0.00015412281
0.0001538448
0.00015335207
0.00015269524
0.00015191578
0.00015104724
0.00015011649
0.00014914477
0.00014814866
0.00014714095
0.00014613129
0.00014512686
0.00014413282
0.00014315273
0.00014218893
0.00014124275
0.00014031478
0.00013940503
0.0001385131
0.00013763825
0.00013677954
0.00013593587
0.00013510604
0.00013428882
0.00013348296
0.00013268719
0.00013190032
0.00013112117
0.00013034862
0.00012958161
0.00012881916
0.00012806033
0.00012730427
0.00012655019
0.00012579737
0.00012504515
0.00012429294
0.00012354021
0.00012278648
0.00012203133
0.00012127439
0.00012051534
0.0001197539
0.00011898984
0.00011822296
0.00011745311
0.00011668017
0.00011590403
0.00011512463
0.00011434194
0.00011355592
0.0001127666
0.00011197399
0.00011117813
0.00011037907
0.00010957688
0.00010877163
0.00010796341
0.00010715232
0.00010633846
0.00010552193
0.00010470284
0.00010388131
0.00010305745
0.00010223137
0.00010140319
0.00010057303
9.9740999e-05
9.8907213e-05
9.807178e-05
9.723481e-05
9.6396405e-05
9.5556668e-05
9.4715698e-05
9.3873587e-05
9.3030426e-05
9.2186303e-05
9.1341298e-05
9.049549e-05
8.9648953e-05
8.8801756e-05
8.7953966e-05
8.7105644e-05
8.6256847e-05
8.540763e-05
8.4558043e-05
8.3708132e-05
8.285794e-05
8.2007507e-05
8.115687e-05
8.0306061e-05
7.9455111e-05
7.8604048e-05
7.7752897e-05
7.690168e-05
7.6050418e-05
7.5199129e-05
7.434783e-05
7.3496533e-05
7.2645253e-05
7.1793999e-05
7.0942782e-05
7.0091608e-05
6.9240485e-05
6.8389419e-05
6.7538414e-05
6.6687473e-05
6.58366e-05
6.4985796e-05
6.4135063e-05
6.3284401e-05
6.2433811e-05
6.1583293e-05
6.0732845e-05
5.9882467e-05
5.9032157e-05
5.8181913e-05
5.7331735e-05
5.6481619e-05
5.5631564e-05
5.4781568e-05
5.3931628e-05
5.3081741e-05
5.2231906e-05
5.138212e-05
5.053238e-05
4.9682685e-05
4.8833031e-05
4.7983417e-05
4.713384e-05
4.6284297e-05
4.5434787e-05
4.4585308e-05
4.3735857e-05
4.2886433e-05
4.2037033e-05
4.1187656e-05
4.03383e-05
3.9488963e-05
3.8639644e-05
3.7790342e-05
3.6941054e-05
3.6091779e-05
3.5242516e-05
3.4393265e-05
3.3544023e-05
3.2694789e-05
3.1845563e-05
3.0996344e-05
3.014713e-05
2.9297922e-05
2.8448717e-05
2.7599515e-05
2.6750316e-05
2.5901119e-05
2.5051924e-05
2.4202729e-05
2.3353535e-05
2.2504341e-05
2.1655147e-05
2.0805951e-05
1.9956755e-05
1.9107557e-05
1.8258358e-05
1.7409157e-05
1.6559954e-05
1.5710749e-05
1.4861542e-05
1.4012333e-05
1.3163121e-05
1.2313907e-05
1.1464691e-05
1.0615472e-05
9.7662511e-06
8.9170277e-06
8.067802e-06
7.218574e-06
6.3693439e-06
5.5201116e-06
4.6708774e-06
3.8216411e-06
2.9724027e-06
2.1231634e-06
1.2739302e-06
4.2468151e-07
5.468674e-05
7.425987e-05
9.2214953e-05
0.0001063392
0.00011777147
0.00012692418
0.00013416199
0.00013985312
0.00014427883
0.00014765369
0.00015015304
0.00015192481
0.00015309543
0.00015377351
0.00015405209
0.00015401029
0.00015371478
0.0001532212
0.00015257548
0.0001518152
0.00015097081
0.00015006676
0.00014912246
0.00014815314
0.00014717064
0.00014618402
0.00014520007
0.00014422379
0.00014325871
0.00014230721
0.00014137079
0.0001404502
0.00013954567
0.000138657
0.0001377837
0.00013692504
0.00013608011
0.00013524794
0.00013442745
0.00013361756
0.00013281717
0.00013202519
0.00013124058
0.0001304623
0.00012968941
0.00012892097
0.00012815613
0.0001273941
0.00012663412
0.00012587552
0.00012511766
0.00012435999
0.00012360199
0.0001228432
0.00012208321
0.00012132166
0.00012055823
0.00011979265
0.00011902468
0.00011825413
0.00011748084
0.00011670467
0.00011592554
0.00011514336
0.00011435809
0.0001135697
0.00011277819
0.00011198357
0.00011118588
0.00011038515
0.00010958145
0.00010877484
0.0001079654
0.00010715322
0.00010633839
0.000105521
0.00010470116
0.00010387897
0.00010305455
0.00010222799
0.00010139941
0.00010056892
9.9736625e-05
9.890263e-05
9.8067043e-05
9.7229965e-05
9.6391496e-05
9.5551734e-05
9.4710771e-05
9.3868698e-05
9.3025602e-05
9.2181565e-05
9.1336666e-05
9.0490981e-05
8.964458e-05
8.8797531e-05
8.7949897e-05
8.7101739e-05
8.6253111e-05
8.5404066e-05
8.4554653e-05
8.3704916e-05
8.2854899e-05
8.2004638e-05
8.115417e-05
8.0303528e-05
7.9452741e-05
7.8601837e-05
7.7750839e-05
7.689977e-05
7.6048651e-05
7.5197499e-05
7.4346331e-05
7.3495159e-05
7.2643997e-05
7.1792856e-05
7.0941745e-05
7.0090672e-05
6.9239643e-05
6.8388666e-05
6.7537744e-05
6.6686881e-05
6.583608e-05
6.4985343e-05
6.4134672e-05
6.3284068e-05
6.2433531e-05
6.1583062e-05
6.0732658e-05
5.9882321e-05
5.9032048e-05
5.8181838e-05
5.733169e-05
5.6481601e-05
5.5631571e-05
5.4781596e-05
5.3931675e-05
5.3081805e-05
5.2231984e-05
5.1382211e-05
5.0532482e-05
4.9682795e-05
4.8833148e-05
4.798354e-05
4.7133967e-05
4.6284427e-05
4.5434919e-05
4.4585441e-05
4.373599e-05
4.2886565e-05
4.2037164e-05
4.1187784e-05
4.0338426e-05
3.9489086e-05
3.8639763e-05
3.7790456e-05
3.6941164e-05
3.6091885e-05
3.5242617e-05
3.4393361e-05
3.3544114e-05
3.2694875e-05
3.1845644e-05
3.099642e-05
3.0147201e-05
2.9297987e-05
2.8448778e-05
2.7599571e-05
2.6750368e-05
2.5901166e-05
2.5051967e-05
2.4202768e-05
2.335357e-05
2.2504372e-05
2.1655174e-05
2.0805975e-05
1.9956776e-05
1.9107575e-05
1.8258373e-05
1.740917e-05
1.6559965e-05
1.5710758e-05
1.4861549e-05
1.4012337e-05
1.3163124e-05
1.2313909e-05
1.1464691e-05
1.0615471e-05
9.766249e-06
8.9170248e-06
8.0677984e-06
7.2185698e-06
6.3693393e-06
5.5201069e-06
4.6708726e-06
3.8216366e-06
2.9723989e-06
2.1231607e-06
1.2739292e-06
4.2468291e-07
-1.367763e-05
4.7845262e-05
8.5333402e-05
0.00010561151
0.00011932905
0.00012919413
0.00013637264
0.00014171191
0.00014572023
0.00014870296
0.00015086855
0.00015237275
0.00015333856
0.00015386662
0.00015404083
0.00015393142
0.00015359705
0.00015308646
0.00015243983
0.00015169006
0.00015086386
0.00014998272
0.00014906377
0.00014812054
0.00014716364
0.00014620126
0.00014523962
0.00014428336
0.00014333583
0.00014239937
0.00014147549
0.00014056507
0.00013966849
0.00013878573
0.00013791648
0.0001370602
0.00013621621
0.00013538369
0.00013456177
0.00013374952
0.00013294598
0.00013215023
0.00013136132
0.00013057835
0.00012980045
0.0001290268
0.00012825661
0.00012748914
0.00012672371
0.00012595968
0.00012519647
0.00012443354
0.00012367041
0.00012290665
0.00012214185
0.00012137567
0.00012060781
0.00011983799
0.000119066
0.00011829163
0.00011751473
0.00011673517
0.00011595284
0.00011516766
0.0001143796
0.0001135886
0.00011279467
0.00011199782
0.00011119806
0.00011039543
0.00010958999
0.00010878178
0.00010797089
0.0001071574
0.00010634137
0.00010552292
0.00010470213
0.00010387909
0.00010305391
0.0001022267
0.00010139755
0.00010056656
9.9733841e-05
9.8899492e-05
9.8063611e-05
9.7226295e-05
9.6387639e-05
9.5547736e-05
9.4706674e-05
9.3864539e-05
9.3021414e-05
9.2177378e-05
9.1332506e-05
9.0486871e-05
8.9640539e-05
8.8793577e-05
8.7946045e-05
8.7098e-05
8.6249496e-05
8.5400582e-05
8.4551307e-05
8.3701713e-05
8.2851841e-05
8.2001728e-05
8.1151409e-05
8.0300914e-05
7.9450274e-05
7.8599515e-05
7.7748659e-05
7.689773e-05
7.6046747e-05
7.5195726e-05
7.4344684e-05
7.3493635e-05
7.2642591e-05
7.1791562e-05
7.0940558e-05
7.0089587e-05
6.9238656e-05
6.838777e-05
6.7536935e-05
6.6686154e-05
6.5835429e-05
6.4984765e-05
6.4134161e-05
6.3283619e-05
6.2433141e-05
6.1582725e-05
6.0732371e-05
5.988208e-05
5.9031849e-05
5.8181678e-05
5.7331565e-05
5.6481509e-05
5.5631507e-05
5.4781559e-05
5.3931661e-05
5.3081812e-05
5.223201e-05
5.1382253e-05
5.0532538e-05
4.9682864e-05
4.8833228e-05
4.7983628e-05
4.7134063e-05
4.6284529e-05
4.5435026e-05
4.4585551e-05
4.3736103e-05
4.2886679e-05
4.2037279e-05
4.1187899e-05
4.033854e-05
3.9489198e-05
3.8639873e-05
3.7790564e-05
3.6941269e-05
3.6091986e-05
3.5242715e-05
3.4393455e-05
3.3544204e-05
3.2694961e-05
3.1845726e-05
3.0996497e-05
3.0147274e-05
2.9298055e-05
2.8448841e-05
2.7599631e-05
2.6750423e-05
2.5901217e-05
2.5052013e-05
2.4202811e-05
2.3353609e-05
2.2504407e-05
2.1655206e-05
2.0806004e-05
1.9956801e-05
1.9107598e-05
1.8258393e-05
1.7409187e-05
1.6559979e-05
1.571077e-05
1.4861559e-05
1.4012346e-05
1.3163131e-05
1.2313913e-05
1.1464694e-05
1.0615473e-05
9.7662499e-06
8.9170246e-06
8.0677973e-06
7.2185681e-06
6.369337e-06
5.5201042e-06
4.6708697e-06
3.8216338e-06
2.9723964e-06
2.1231589e-06
1.2739283e-06
4.2468353e-07
-0.00011324387
2.7808492e-05
8.7409411e-05
0.00011140961
0.00012507961
0.00013396817
0.00014004674
0.00014442417
0.0001476584
0.0001500394
0.00015174616
0.00015290619
0.00015361882
0.00015396551
0.00015401458
0.00015382367
0.00015344123
0.00015290773
0.00015225676
0.00015151594
0.00015070779
0.00014985045
0.00014895854
0.00014804371
0.00014711519
0.00014618014
0.00014524409
0.00014431124
0.00014338468
0.00014246662
0.00014155857
0.00014066148
0.00013977584
0.00013890178
0.00013803919
0.00013718772
0.00013634685
0.00013551599
0.00013469443
0.0001338814
0.00013307615
0.00013227785
0.00013148573
0.00013069899
0.00012991689
0.00012913868
0.00012836367
0.0001275912
0.00012682065
0.00012605144
0.00012528304
0.00012451495
0.00012374673
0.00012297797
0.0001222083
0.00012143739
0.00012066495
0.00011989074
0.00011911452
0.00011833612
0.00011755537
0.00011677215
0.00011598636
0.00011519793
0.00011440679
0.00011361291
0.00011281629
0.00011201692
0.00011121481
0.00011041001
0.00010960256
0.0001087925
0.00010797991
0.00010716485
0.00010634741
0.00010552766
0.00010470569
0.00010388159
0.00010305547
0.0001022274
0.0001013975
0.00010056585
9.9732546e-05
9.889769e-05
9.8061374e-05
9.7223688e-05
9.6384721e-05
9.5544562e-05
9.4703294e-05
9.3860999e-05
9.3017755e-05
9.2173636e-05
9.1328715e-05
9.048306e-05
8.9636736e-05
8.8789803e-05
8.7942321e-05
8.7094343e-05
8.6245921e-05
8.5397102e-05
8.4547933e-05
8.3698453e-05
8.2848702e-05
8.1998716e-05
8.1148527e-05
8.0298166e-05
7.9447661e-05
7.8597036e-05
7.7746316e-05
7.689552e-05
7.6044668e-05
7.5193777e-05
7.4342861e-05
7.3491934e-05
7.2641009e-05
7.1790095e-05
7.0939201e-05
7.0088336e-05
6.9237506e-05
6.8386717e-05
6.7535974e-05
6.668528e-05
6.5834638e-05
6.4984051e-05
6.4133521e-05
6.3283048e-05
6.2432634e-05
6.1582278e-05
6.073198e-05
5.9881741e-05
5.9031558e-05
5.8181432e-05
5.733136e-05
5.6481341e-05
5.5631374e-05
5.4781457e-05
5.3931587e-05
5.3081764e-05
5.2231985e-05
5.1382249e-05
5.0532553e-05
4.9682895e-05
4.8833273e-05
4.7983685e-05
4.7134131e-05
4.6284606e-05
4.5435111e-05
4.4585642e-05
4.3736199e-05
4.2886779e-05
4.2037381e-05
4.1188003e-05
4.0338645e-05
3.9489303e-05
3.8639978e-05
3.7790668e-05
3.6941371e-05
3.6092086e-05
3.5242813e-05
3.4393549e-05
3.3544295e-05
3.2695049e-05
3.184581e-05
3.0996577e-05
3.014735e-05
2.9298128e-05
2.8448909e-05
2.7599695e-05
2.6750483e-05
2.5901273e-05
2.5052066e-05
2.4202859e-05
2.3353653e-05
2.2504448e-05
2.1655243e-05
2.0806038e-05
1.9956832e-05
1.9107625e-05
1.8258417e-05
1.7409209e-05
1.6559998e-05
1.5710786e-05
1.4861573e-05
1.4012358e-05
1.3163141e-05
1.2313922e-05
1.1464701e-05
1.0615478e-05
9.7662536e-06
8.9170271e-06
8.0677987e-06
7.2185686e-06
6.3693367e-06
5.5201033e-06
4.6708684e-06
3.8216323e-06
2.9723949e-06
2.1231575e-06
1.273927e-06
4.2468344e-07
0.00024738761
0.00016888358
0.00014274226
0.00013892436
0.000139982
0.0001424353
0.00014519835
0.00014771361
0.00014979215
0.0001514066
0.00015258365
0.00015336999
0.00015381858
0.00015398156
0.00015390708
0.00015363799
0.00015321148
0.00015265931
0.00015200827
0.0001512806
0.0001504945
0.00014966488
0.00014880388
0.00014792126
0.00014702485
0.00014612079
0.00014521392
0.00014430796
0.00014340573
0.0001425093
0.00014162017
0.00014073933
0.00013986739
0.00013900463
0.0001381511
0.00013730665
0.00013647096
0.00013564361
0.00013482409
0.00013401183
0.0001332062
0.00013240657
0.00013161229
0.00013082271
0.00013003718
0.00012925509
0.00012847583
0.00012769882
0.00012692353
0.00012614944
0.00012537607
0.00012460298
0.00012382976
0.00012305604
0.00012228149
0.0001215058
0.0001207287
0.00011994997
0.00011916938
0.00011838678
0.000117602
0.00011681493
0.00011602548
0.00011523355
0.00011443911
0.00011364212
0.00011284256
0.00011204043
0.00011123575
0.00011042854
0.00010961884
0.00010880671
0.00010799219
0.00010717535
0.00010635627
0.00010553502
0.00010471168
0.00010388634
0.00010305909
0.00010223
0.00010139918
0.00010056671
9.9732678e-05
9.8897179e-05
9.8060297e-05
9.7222118e-05
9.6382727e-05
9.5542206e-05
9.4700633e-05
9.3858086e-05
9.3014637e-05
9.2170358e-05
9.1325316e-05
9.0479576e-05
8.9633198e-05
8.878624e-05
8.7938758e-05
8.7090803e-05
8.6242424e-05
8.5393665e-05
8.4544569e-05
8.3695176e-05
8.2845522e-05
8.1995641e-05
8.1145564e-05
8.029532e-05
7.9444937e-05
7.8594436e-05
7.7743842e-05
7.6893172e-05
7.6042447e-05
7.5191681e-05
7.4340889e-05
7.3490083e-05
7.2639277e-05
7.1788478e-05
7.0937697e-05
7.008694e-05
6.9236215e-05
6.8385526e-05
6.7534878e-05
6.6684276e-05
6.5833721e-05
6.4983217e-05
6.4132765e-05
6.3282366e-05
6.2432021e-05
6.1581731e-05
6.0731495e-05
5.9881312e-05
5.9031183e-05
5.8181106e-05
5.733108e-05
5.6481104e-05
5.5631176e-05
5.4781294e-05
5.3931458e-05
5.3081664e-05
5.2231913e-05
5.1382201e-05
5.0532526e-05
4.9682888e-05
4.8833284e-05
4.7983712e-05
4.7134171e-05
4.6284658e-05
4.5435173e-05
4.4585713e-05
4.3736277e-05
4.2886863e-05
4.203747e-05
4.1188096e-05
4.033874e-05
3.9489401e-05
3.8640077e-05
3.7790766e-05
3.6941469e-05
3.6092183e-05
3.5242908e-05
3.4393643e-05
3.3544386e-05
3.2695137e-05
3.1845895e-05
3.0996659e-05
3.0147429e-05
2.9298203e-05
2.8448981e-05
2.7599763e-05
2.6750547e-05
2.5901334e-05
2.5052122e-05
2.4202912e-05
2.3353702e-05
2.2504493e-05
2.1655285e-05
2.0806076e-05
1.9956867e-05
1.9107657e-05
1.8258446e-05
1.7409234e-05
1.6560021e-05
1.5710807e-05
1.4861591e-05
1.4012373e-05
1.3163154e-05
1.2313933e-05
1.1464711e-05
1.0615486e-05
9.7662599e-06
8.917032e-06
8.0678023e-06
7.218571e-06
6.3693382e-06
5.520104e-06
4.6708685e-06
3.8216318e-06
2.9723941e-06
2.1231562e-06
1.2739251e-06
4.2468297e-07
0.00021332285
0.00016949992
0.00015183774
0.00014807054
0.00014715682
0.00014760531
0.00014882067
0.00015019256
0.00015142997
0.00015242911
0.00015315845
0.00015362193
0.00015384182
0.00015384775
0.00015367082
0.00015334071
0.00015288438
0.00015232563
0.00015168477
0.00015097881
0.00015022213
0.0001494267
0.00014860235
0.00014775712
0.00014689751
0.00014602875
0.00014515503
0.00014427964
0.00014340516
0.00014253354
0.00014166627
0.00014080441
0.00013994868
0.00013909952
0.00013825716
0.00013742165
0.00013659286
0.00013577058
0.00013495448
0.00013414419
0.00013333926
0.00013253922
0.00013174358
0.00013095182
0.00013016343
0.00012937791
0.00012859476
0.00012781349
0.00012703365
0.0001262548
0.00012547652
0.00012469843
0.00012392017
0.00012314141
0.00012236186
0.00012158124
0.0001207993
0.00012001585
0.00011923068
0.00011844363
0.00011765458
0.0001168634
0.00011607002
0.00011527434
0.00011447634
0.00011367597
0.00011287321
0.00011206807
0.00011126055
0.00011045068
0.0001096385
0.00010882405
0.00010800738
0.00010718854
0.00010636762
0.00010554467
0.00010471977
0.000103893
0.00010306444
0.00010223417
0.00010140228
0.00010056885
9.9733952e-05
9.8897681e-05
9.8060116e-05
9.7221335e-05
9.6381418e-05
9.5540441e-05
9.4698477e-05
9.3855598e-05
9.3011873e-05
9.2167367e-05
9.1322144e-05
9.0476264e-05
8.9629783e-05
8.8782757e-05
8.7935236e-05
8.7087269e-05
8.6238901e-05
8.5390175e-05
8.454113e-05
8.3691803e-05
8.2842228e-05
8.1992438e-05
8.1142462e-05
8.0292327e-05
7.9442057e-05
7.8591675e-05
7.7741203e-05
7.6890658e-05
7.6040057e-05
7.5189417e-05
7.433875e-05
7.3488068e-05
7.2637383e-05
7.1786704e-05
7.0936039e-05
7.0085395e-05
6.9234779e-05
6.8384196e-05
6.7533649e-05
6.6683144e-05
6.5832682e-05
6.4982267e-05
6.4131899e-05
6.328158e-05
6.2431311e-05
6.1581091e-05
6.0730922e-05
5.9880802e-05
5.9030731e-05
5.8180709e-05
5.7330734e-05
5.6480805e-05
5.563092e-05
5.4781079e-05
5.393128e-05
5.308152e-05
5.2231799e-05
5.1382116e-05
5.0532467e-05
4.9682852e-05
4.8833268e-05
4.7983715e-05
4.713419e-05
4.6284692e-05
4.5435219e-05
4.458577e-05
4.3736343e-05
4.2886937e-05
4.2037551e-05
4.1188182e-05
4.033883e-05
3.9489494e-05
3.8640172e-05
3.7790863e-05
3.6941566e-05
3.6092281e-05
3.5243005e-05
3.4393738e-05
3.354448e-05
3.2695229e-05
3.1845984e-05
3.0996745e-05
3.0147512e-05
2.9298283e-05
2.8449057e-05
2.7599835e-05
2.6750616e-05
2.5901399e-05
2.5052183e-05
2.4202969e-05
2.3353756e-05
2.2504544e-05
2.1655331e-05
2.0806119e-05
1.9956906e-05
1.9107693e-05
1.8258479e-05
1.7409264e-05
1.6560048e-05
1.5710831e-05
1.4861612e-05
1.4012392e-05
1.3163171e-05
1.2313948e-05
1.1464723e-05
1.0615496e-05
9.7662685e-06
8.9170389e-06
8.0678078e-06
7.2185752e-06
6.3693411e-06
5.5201058e-06
4.6708694e-06
3.821632e-06
2.9723936e-06
2.1231551e-06
1.273923e-06
4.2468104e-07
0.00017723996
0.00016373373
0.00015567303
0.00015256791
0.00015115893
0.00015083125
0.00015119975
0.00015182669
0.00015246449
0.00015299985
0.00015338102
0.00015359098
0.00015363304
0.00015352084
0.00015327215
0.00015290593
0.00015244032
0.00015189175
0.00015127475
0.00015060212
0.00014988486
0.00014913225
0.00014835209
0.00014755084
0.0001467339
0.0001459057
0.00014506984
0.00014422929
0.00014338643
0.00014254315
0.00014170094
0.00014086096
0.00014002407
0.00013919089
0.00013836184
0.00013753716
0.00013671696
0.00013590123
0.00013508985
0.00013428264
0.00013347936
0.00013267971
0.00013188336
0.00013108994
0.0001302991
0.00012951044
0.00012872359
0.00012793818
0.00012715382
0.00012637018
0.0001255869
0.00012480366
0.00012402017
0.00012323614
0.00012245132
0.00012166548
0.00012087839
0.00012008988
0.00011929979
0.00011850795
0.00011771427
0.00011691863
0.00011612095
0.00011532117
0.00011451924
0.00011371514
0.00011290885
0.00011210036
0.00011128968
0.00011047685
0.00010966188
0.00010884483
0.00010802573
0.00010720463
0.00010638161
0.00010555673
0.00010473004
0.00010390164
0.00010307158
0.00010223994
0.0001014068
0.00010057224
9.9736327e-05
9.8899145e-05
9.8060767e-05
9.7221265e-05
9.6380712e-05
9.5539178e-05
9.4696731e-05
9.3853437e-05
9.300936e-05
9.2164559e-05
9.1319094e-05
9.0473019e-05
8.9626388e-05