/*--------------------------------*- C++ -*----------------------------------*\
| =========                 |                                                 |
| \\      /  F ield         | OpenFOAM: The Open Source CFD Toolbox           |
|  \\    /   O peration     | Version:  2406                                  |
|   \\  /    A nd           | Website:  www.openfoam.com                      |
|    \\/     M anipulation  |                                                 |
\*---------------------------------------------------------------------------*/
FoamFile
{
    version     2.0;
    format      ascii;
    arch        "LSB;label=32;scalar=64";
    class       volVectorField;
    location    "604";
    object      U;
}
// * * * * * * * * * * * * * * * * * * * * * * * * * * * * * * * * * * * * * //

dimensions      [0 1 -1 0 0 0 0];

internalField   nonuniform List<vector> 
7600
(
(-1.5955673e-05 1.5895654e-05 0)
(-8.6449988e-05 2.4158212e-05 0)
(-0.00015915304 2.0161397e-05 0)
(-0.00020284386 1.0499929e-05 0)
(-0.00020456865 7.3072167e-07 0)
(-0.00016915999 -6.946796e-06 0)
(-0.00010731056 -1.1930357e-05 0)
(-3.014788e-05 -1.4464674e-05 0)
(5.3003984e-05 -1.5128102e-05 0)
(0.00013530595 -1.4534365e-05 0)
(0.00021227783 -1.3200104e-05 0)
(0.00028134551 -1.1506154e-05 0)
(0.00034133372 -9.7091487e-06 0)
(0.00039201622 -7.968044e-06 0)
(0.00043376502 -6.3715015e-06 0)
(0.00046729573 -4.9609782e-06 0)
(0.00049349248 -3.7481282e-06 0)
(0.00051329332 -2.7270134e-06 0)
(0.00052761907 -1.8822371e-06 0)
(0.00053733209 -1.194121e-06 0)
(0.00054321497 -6.4185417e-07 0)
(0.00054596221 -2.0530091e-07 0)
(0.00054617969 1.3405232e-07 0)
(0.00054438896 3.9270676e-07 0)
(0.00054103398 5.8501297e-07 0)
(0.00053648902 7.2324581e-07 0)
(0.00053106694 8.1778121e-07 0)
(0.00052502714 8.7730463e-07 0)
(0.00051858291 9.0903081e-07 0)
(0.00051190815 9.1891424e-07 0)
(0.00050514333 9.1184166e-07 0)
(0.0004984007 8.9180308e-07 0)
(0.00049176884 8.6204063e-07 0)
(0.00048531657 8.251763e-07 0)
(0.00047909625 7.8332021e-07 0)
(0.00047314665 7.3816165e-07 0)
(0.00046749534 6.9104516e-07 0)
(0.00046216072 6.4303365e-07 0)
(0.0004571537 5.949607e-07 0)
(0.00045247914 5.4747351e-07 0)
(0.00044813703 5.0106829e-07 0)
(0.00044412349 4.5611913e-07 0)
(0.00044043157 4.1290174e-07 0)
(0.00043705197 3.7161264e-07 0)
(0.00043397357 3.3238493e-07 0)
(0.00043118392 2.9530091e-07 0)
(0.00042866961 2.6040263e-07 0)
(0.00042641659 2.2770004e-07 0)
(0.00042441044 1.9717799e-07 0)
(0.00042263656 1.688015e-07 0)
(0.00042108036 1.4252044e-07 0)
(0.00041972739 1.1827285e-07 0)
(0.00041856345 9.5988054e-08 0)
(0.00041757468 7.5588815e-08 0)
(0.00041674763 5.6993406e-08 0)
(0.00041606932 4.0116911e-08 0)
(0.00041552728 2.4872713e-08 0)
(0.00041510956 1.1173233e-08 0)
(0.00041480478 -1.0689942e-09 0)
(0.00041460211 -1.1940923e-08 0)
(0.00041449132 -2.1528195e-08 0)
(0.00041446273 -2.991496e-08 0)
(0.00041450727 -3.7183258e-08 0)
(0.00041461639 -4.3412984e-08 0)
(0.00041478214 -4.8681446e-08 0)
(0.0004149971 -5.3063351e-08 0)
(0.00041525436 -5.6630447e-08 0)
(0.00041554755 -5.9451627e-08 0)
(0.00041587079 -6.1592675e-08 0)
(0.00041621866 -6.3116357e-08 0)
(0.00041658623 -6.4082254e-08 0)
(0.00041696898 -6.4546842e-08 0)
(0.00041736281 -6.4563426e-08 0)
(0.00041776403 -6.4182188e-08 0)
(0.00041816931 -6.3450235e-08 0)
(0.00041857567 -6.2411595e-08 0)
(0.00041898048 -6.1107373e-08 0)
(0.0004193814 -5.9575678e-08 0)
(0.00041977639 -5.78519e-08 0)
(0.00042016369 -5.5968553e-08 0)
(0.00042054178 -5.3955665e-08 0)
(0.00042090937 -5.1840537e-08 0)
(0.00042126539 -4.9648242e-08 0)
(0.00042160896 -4.7401291e-08 0)
(0.00042193939 -4.5120242e-08 0)
(0.00042225616 -4.2823272e-08 0)
(0.00042255886 -4.0526879e-08 0)
(0.00042284727 -3.824537e-08 0)
(0.00042312124 -3.5991648e-08 0)
(0.00042338075 -3.3776612e-08 0)
(0.00042362588 -3.1610019e-08 0)
(0.00042385677 -2.9499819e-08 0)
(0.00042407367 -2.7453059e-08 0)
(0.00042427685 -2.5475167e-08 0)
(0.00042446666 -2.3570891e-08 0)
(0.00042464349 -2.1743549e-08 0)
(0.00042480777 -1.9995962e-08 0)
(0.00042495995 -1.8329714e-08 0)
(0.00042510051 -1.6746048e-08 0)
(0.00042522995 -1.5245151e-08 0)
(0.00042534877 -1.3826998e-08 0)
(0.0004254575 -1.2490683e-08 0)
(0.00042555664 -1.1235188e-08 0)
(0.00042564673 -1.0058782e-08 0)
(0.00042572827 -8.9596891e-09 0)
(0.00042580177 -7.9355889e-09 0)
(0.00042586773 -6.9841529e-09 0)
(0.00042592664 -6.1026682e-09 0)
(0.00042597897 -5.2884273e-09 0)
(0.00042602518 -4.538492e-09 0)
(0.0004260657 -3.8499206e-09 0)
(0.00042610097 -3.2196849e-09 0)
(0.00042613139 -2.6447285e-09 0)
(0.00042615734 -2.1220432e-09 0)
(0.0004261792 -1.6485532e-09 0)
(0.00042619732 -1.2213539e-09 0)
(0.00042621203 -8.3742683e-10 0)
(0.00042622363 -4.9403337e-10 0)
(0.00042623244 -1.8827069e-10 0)
(0.00042623871 8.239142e-11 0)
(0.00042624271 3.2069662e-10 0)
(0.00042624468 5.2893952e-10 0)
(0.00042624485 7.0967442e-10 0)
(0.00042624342 8.6494848e-10 0)
(0.00042624058 9.9710656e-10 0)
(0.00042623651 1.1079471e-09 0)
(0.00042623138 1.1995953e-09 0)
(0.00042622534 1.2736095e-09 0)
(0.00042621853 1.3318912e-09 0)
(0.00042621107 1.3757724e-09 0)
(0.00042620307 1.4069329e-09 0)
(0.00042619465 1.4264991e-09 0)
(0.00042618589 1.4359364e-09 0)
(0.00042617689 1.4361883e-09 0)
(0.00042616772 1.4285169e-09 0)
(0.00042615845 1.4137071e-09 0)
(0.00042614914 1.3928307e-09 0)
(0.00042613985 1.3665386e-09 0)
(0.00042613062 1.3357269e-09 0)
(0.00042612151 1.3009362e-09 0)
(0.00042611254 1.262903e-09 0)
(0.00042610376 1.2220789e-09 0)
(0.00042609519 1.1790575e-09 0)
(0.00042608685 1.1342205e-09 0)
(0.00042607877 1.0880347e-09 0)
(0.00042607096 1.0408285e-09 0)
(0.00042606345 9.9295822e-10 0)
(0.00042605623 9.4471144e-10 0)
(0.00042604932 8.9634949e-10 0)
(0.00042604272 8.4812968e-10 0)
(0.00042603645 8.0023253e-10 0)
(0.00042603049 7.5289197e-10 0)
(0.00042602486 7.0622105e-10 0)
(0.00042601955 6.6043539e-10 0)
(0.00042601456 6.1559243e-10 0)
(0.00042600989 5.7189159e-10 0)
(0.00042600552 5.2934569e-10 0)
(0.00042600146 4.8813897e-10 0)
(0.0004259977 4.4824891e-10 0)
(0.00042599423 4.0984389e-10 0)
(0.00042599103 3.7287447e-10 0)
(0.00042598811 3.3749202e-10 0)
(0.00042598545 3.0362716e-10 0)
(0.00042598304 2.7141242e-10 0)
(0.00042598087 2.4076464e-10 0)
(0.00042597893 2.1179591e-10 0)
(0.00042597721 1.8441423e-10 0)
(0.00042597569 1.5870977e-10 0)
(0.00042597437 1.3458596e-10 0)
(0.00042597323 1.1211018e-10 0)
(0.00042597226 9.1184574e-11 0)
(0.00042597146 7.1853476e-11 0)
(0.0004259708 5.4020599e-11 0)
(0.00042597028 3.770758e-11 0)
(0.00042596989 2.2821767e-11 0)
(0.00042596961 9.3633478e-12 0)
(0.00042596944 -2.7549829e-12 0)
(0.00042596936 -1.3552863e-11 0)
(0.00042596937 -2.3111092e-11 0)
(0.00042596945 -3.1466794e-11 0)
(0.00042596961 -3.8693551e-11 0)
(0.00042596982 -4.4843775e-11 0)
(0.00042597008 -4.9983956e-11 0)
(0.00042597038 -5.4180019e-11 0)
(0.00042597072 -5.7493281e-11 0)
(0.00042597109 -6.0004059e-11 0)
(0.00042597148 -6.1774923e-11 0)
(0.00042597189 -6.2908902e-11 0)
(0.00042597231 -6.3489635e-11 0)
(0.00042597275 -6.3674573e-11 0)
(0.00042597318 -6.3629355e-11 0)
(0.00042597363 -6.3671918e-11 0)
(0.00042597407 -6.4242446e-11 0)
(0.00042597453 -6.6160989e-11 0)
(0.00042597499 -7.0823504e-11 0)
(0.00042597549 -8.0887124e-11 0)
(0.00042597602 -9.9678661e-11 0)
(0.00042597662 -1.3008113e-10 0)
(0.00042597745 -2.0328104e-10 0)
(0.00042597853 -4.0145021e-10 0)
(-3.0514113e-05 9.4404499e-05 0)
(-0.00016913407 0.00014863663 0)
(-0.00028608923 0.00011377928 0)
(-0.00033206719 3.8823013e-05 0)
(-0.00029089687 -3.926038e-05 0)
(-0.00017633782 -0.00010172306 0)
(-1.1283226e-05 -0.00014274811 0)
(0.00018161527 -0.00016360349 0)
(0.0003837031 -0.00016848982 0)
(0.00058133336 -0.00016215772 0)
(0.00076549778 -0.00014879812 0)
(0.00093094549 -0.00013166902 0)
(0.001075214 -0.00011309726 0)
(0.0011977782 -9.4629117e-05 0)
(0.0012993756 -7.7215737e-05 0)
(0.0013815049 -6.1382527e-05 0)
(0.00144607 -4.7365412e-05 0)
(0.0014951375 -3.5212696e-05 0)
(0.0015307782 -2.4857642e-05 0)
(0.001554969 -1.6168282e-05 0)
(0.001569537 -8.9805469e-06 0)
(0.0015761312 -3.1195457e-06 0)
(0.0015762141 1.5873033e-06 0)
(0.001571064 5.3027639e-06 0)
(0.0015617852 8.175596e-06 0)
(0.0015493222 1.0338822e-05 0)
(0.0015344751 1.190954e-05 0)
(0.0015179163 1.2989589e-05 0)
(0.001500206 1.3666687e-05 0)
(0.0014818068 1.4015798e-05 0)
(0.0014630972 1.4100552e-05 0)
(0.0014443839 1.3974652e-05 0)
(0.0014259124 1.3683178e-05 0)
(0.0014078763 1.3263792e-05 0)
(0.0013904255 1.2747809e-05 0)
(0.0013736737 1.2161145e-05 0)
(0.0013577036 1.1525142e-05 0)
(0.0013425732 1.0857284e-05 0)
(0.0013283193 1.0171813e-05 0)
(0.0013149617 9.4802487e-06 0)
(0.0013025062 8.7918377e-06 0)
(0.0012909474 8.1139293e-06 0)
(0.001280271 7.452294e-06 0)
(0.0012704555 6.8113919e-06 0)
(0.0012614739 6.1945968e-06 0)
(0.001253295 5.6043853e-06 0)
(0.0012458844 5.0424943e-06 0)
(0.0012392056 4.5100523e-06 0)
(0.0012332207 4.0076897e-06 0)
(0.0012278909 3.5356301e-06 0)
(0.0012231771 3.093767e-06 0)
(0.0012190403 2.6817268e-06 0)
(0.0012154419 2.2989223e-06 0)
(0.0012123443 1.9445964e-06 0)
(0.0012097105 1.617859e-06 0)
(0.0012075049 1.3177176e-06 0)
(0.001205693 1.0431028e-06 0)
(0.0012042417 7.9288962e-07 0)
(0.0012031192 5.6591567e-07 0)
(0.0012022956 3.609955e-07 0)
(0.001201742 1.7693354e-07 0)
(0.0012014314 1.2534276e-08 0)
(0.0012013382 -1.3338872e-07 0)
(0.0012014384 -2.6200594e-07 0)
(0.0012017093 -3.7446536e-07 0)
(0.00120213 -4.7188773e-07 0)
(0.0012026808 -5.5536204e-07 0)
(0.0012033436 -6.2594251e-07 0)
(0.0012041014 -6.8464563e-07 0)
(0.0012049388 -7.3244827e-07 0)
(0.0012058414 -7.7028579e-07 0)
(0.0012067963 -7.9905095e-07 0)
(0.0012077916 -8.1959299e-07 0)
(0.0012088164 -8.327173e-07 0)
(0.0012098611 -8.3918518e-07 0)
(0.0012109168 -8.3971404e-07 0)
(0.0012119757 -8.3497784e-07 0)
(0.001213031 -8.256076e-07 0)
(0.0012140764 -8.1219234e-07 0)
(0.0012151065 -7.9527991e-07 0)
(0.0012161168 -7.7537828e-07 0)
(0.0012171033 -7.5295657e-07 0)
(0.0012180625 -7.2844668e-07 0)
(0.0012189917 -7.0224436e-07 0)
(0.0012198885 -6.7471115e-07 0)
(0.0012207512 -6.4617548e-07 0)
(0.0012215782 -6.1693472e-07 0)
(0.0012223687 -5.8725631e-07 0)
(0.0012231219 -5.5737995e-07 0)
(0.0012238375 -5.2751861e-07 0)
(0.0012245155 -4.9786082e-07 0)
(0.0012251559 -4.6857153e-07 0)
(0.0012257593 -4.3979451e-07 0)
(0.0012263262 -4.1165301e-07 0)
(0.0012268573 -3.8425213e-07 0)
(0.0012273536 -3.5767944e-07 0)
(0.001227816 -3.3200718e-07 0)
(0.0012282457 -3.072928e-07 0)
(0.0012286438 -2.8358108e-07 0)
(0.0012290116 -2.609045e-07 0)
(0.0012293504 -2.3928529e-07 0)
(0.0012296616 -2.1873565e-07 0)
(0.0012299463 -1.9925965e-07 0)
(0.0012302061 -1.808534e-07 0)
(0.0012304422 -1.6350674e-07 0)
(0.0012306559 -1.4720338e-07 0)
(0.0012308487 -1.3192233e-07 0)
(0.0012310218 -1.1763811e-07 0)
(0.0012311765 -1.0432188e-07 0)
(0.0012313139 -9.1941693e-08 0)
(0.0012314354 -8.0463375e-08 0)
(0.001231542 -6.9850798e-08 0)
(0.0012316348 -6.0066565e-08 0)
(0.0012317149 -5.1072284e-08 0)
(0.0012317834 -4.2829033e-08 0)
(0.0012318411 -3.5297706e-08 0)
(0.0012318889 -2.8439229e-08 0)
(0.0012319279 -2.2214996e-08 0)
(0.0012319587 -1.6586848e-08 0)
(0.0012319821 -1.1517607e-08 0)
(0.0012319989 -6.9708303e-09 0)
(0.0012320096 -2.9114393e-09 0)
(0.0012320151 6.9472423e-10 0)
(0.0012320157 3.8801821e-09 0)
(0.0012320122 6.6764361e-09 0)
(0.0012320049 9.1131806e-09 0)
(0.0012319944 1.1219056e-08 0)
(0.0012319811 1.3020806e-08 0)
(0.0012319653 1.4544133e-08 0)
(0.0012319475 1.5812825e-08 0)
(0.0012319279 1.6849675e-08 0)
(0.0012319069 1.7675607e-08 0)
(0.0012318848 1.8310622e-08 0)
(0.0012318618 1.8772943e-08 0)
(0.0012318381 1.9079952e-08 0)
(0.0012318139 1.9247379e-08 0)
(0.0012317895 1.9290193e-08 0)
(0.001231765 1.9221867e-08 0)
(0.0012317404 1.9055192e-08 0)
(0.0012317161 1.880163e-08 0)
(0.001231692 1.8472034e-08 0)
(0.0012316683 1.80761e-08 0)
(0.0012316451 1.7622979e-08 0)
(0.0012316225 1.7120841e-08 0)
(0.0012316005 1.6577359e-08 0)
(0.0012315791 1.5999393e-08 0)
(0.0012315585 1.5393345e-08 0)
(0.0012315386 1.4764962e-08 0)
(0.0012315195 1.4119559e-08 0)
(0.0012315013 1.3461942e-08 0)
(0.0012314839 1.2796497e-08 0)
(0.0012314673 1.2127234e-08 0)
(0.0012314516 1.1457751e-08 0)
(0.0012314367 1.0791379e-08 0)
(0.0012314228 1.0131042e-08 0)
(0.0012314096 9.4794887e-09 0)
(0.0012313973 8.8390637e-09 0)
(0.0012313859 8.2120118e-09 0)
(0.0012313752 7.600174e-09 0)
(0.0012313653 7.00535e-09 0)
(0.0012313562 6.4289405e-09 0)
(0.0012313479 5.8723476e-09 0)
(0.0012313403 5.3365825e-09 0)
(0.0012313333 4.8226869e-09 0)
(0.0012313271 4.3313261e-09 0)
(0.0012313214 3.8632128e-09 0)
(0.0012313164 3.4187032e-09 0)
(0.001231312 2.9982096e-09 0)
(0.0012313081 2.6018129e-09 0)
(0.0012313047 2.2296514e-09 0)
(0.0012313018 1.8815632e-09 0)
(0.0012312993 1.5574396e-09 0)
(0.0012312973 1.2569073e-09 0)
(0.0012312957 9.7963868e-10 0)
(0.0012312944 7.2508048e-10 0)
(0.0012312934 4.9271558e-10 0)
(0.0012312928 2.8184184e-10 0)
(0.0012312924 9.1782352e-11 0)
(0.0012312923 -7.8283851e-11 0)
(0.0012312924 -2.2916455e-10 0)
(0.0012312927 -3.6177332e-10 0)
(0.0012312931 -4.7702518e-10 0)
(0.0012312937 -5.7590932e-10 0)
(0.0012312945 -6.594375e-10 0)
(0.0012312953 -7.2867872e-10 0)
(0.0012312962 -7.8476206e-10 0)
(0.0012312972 -8.2888793e-10 0)
(0.0012312983 -8.6239572e-10 0)
(0.0012312994 -8.8678098e-10 0)
(0.0012313006 -9.0385881e-10 0)
(0.0012313017 -9.1585103e-10 0)
(0.0012313029 -9.2573086e-10 0)
(0.0012313041 -9.3752544e-10 0)
(0.0012313053 -9.5705032e-10 0)
(0.0012313065 -9.92702e-10 0)
(0.0012313078 -1.0567191e-09 0)
(0.0012313091 -1.1661236e-09 0)
(0.0012313106 -1.3444924e-09 0)
(0.0012313122 -1.6186674e-09 0)
(0.0012313141 -1.9368917e-09 0)
(-3.9882158e-05 0.00020700965 0)
(-0.0001940014 0.00029431638 0)
(-0.00027616903 0.00018925034 0)
(-0.00024876913 1.1270638e-05 0)
(-0.00011264106 -0.00016270328 0)
(0.00010399483 -0.00029660825 0)
(0.00036925826 -0.00038114039 0)
(0.00065590328 -0.00042091459 0)
(0.00094330002 -0.00042583526 0)
(0.0012171804 -0.00040644017 0)
(0.0014685479 -0.00037183549 0)
(0.0016924349 -0.00032907401 0)
(0.0018867851 -0.00028322164 0)
(0.0020515504 -0.00023768995 0)
(0.0021879978 -0.00019462242 0)
(0.0022981985 -0.00015524302 0)
(0.0023846603 -0.00012013754 0)
(0.0024500711 -8.9466788e-05 0)
(0.0024971249 -6.3121408e-05 0)
(0.0025284101 -4.0830912e-05 0)
(0.00254634 -2.2238368e-05 0)
(0.0025531163 -6.9501912e-06 0)
(0.002550713 5.4317686e-06 0)
(0.0025408753 1.5290675e-05 0)
(0.0025251278 2.2982864e-05 0)
(0.0025047891 2.8832042e-05 0)
(0.0024809884 3.3127272e-05 0)
(0.0024546847 3.6123297e-05 0)
(0.0024266852 3.8042257e-05 0)
(0.0023976632 3.9076197e-05 0)
(0.0023681754 3.9389932e-05 0)
(0.0023386771 3.9124008e-05 0)
(0.0023095366 3.8397601e-05 0)
(0.0022810476 3.731124e-05 0)
(0.0022534399 3.5949298e-05 0)
(0.0022268901 3.4382247e-05 0)
(0.0022015289 3.2668655e-05 0)
(0.0021774495 3.0856942e-05 0)
(0.0021547131 2.8986908e-05 0)
(0.0021333551 2.7091061e-05 0)
(0.0021133891 2.5195752e-05 0)
(0.0020948111 2.3322151e-05 0)
(0.0020776029 2.1487083e-05 0)
(0.002061735 1.970373e-05 0)
(0.002047169 1.7982233e-05 0)
(0.0020338594 1.6330198e-05 0)
(0.0020217556 1.4753128e-05 0)
(0.002010803 1.3254777e-05 0)
(0.0020009447 1.1837458e-05 0)
(0.0019921219 1.0502298e-05 0)
(0.0019842752 9.2494483e-06 0)
(0.001977345 8.0782686e-06 0)
(0.0019712722 6.9874754e-06 0)
(0.0019659985 5.9752692e-06 0)
(0.001961467 5.0394402e-06 0)
(0.0019576224 4.1774581e-06 0)
(0.001954411 3.386546e-06 0)
(0.0019517812 2.6637442e-06 0)
(0.0019496837 2.0059621e-06 0)
(0.0019480711 1.4100235e-06 0)
(0.0019468985 8.727034e-07 0)
(0.0019461231 3.9075963e-07 0)
(0.0019457047 -3.9040529e-08 0)
(0.0019456053 -4.1989832e-07 0)
(0.0019457892 -7.5496495e-07 0)
(0.001946223 -1.0473259e-06 0)
(0.0019468754 -1.2999878e-06 0)
(0.0019477176 -1.5158684e-06 0)
(0.0019487226 -1.6977877e-06 0)
(0.0019498655 -1.8484612e-06 0)
(0.0019511234 -1.9704947e-06 0)
(0.0019524755 -2.0663798e-06 0)
(0.0019539024 -2.1384913e-06 0)
(0.0019553868 -2.1890854e-06 0)
(0.0019569127 -2.2202989e-06 0)
(0.0019584659 -2.234149e-06 0)
(0.0019600337 -2.2325341e-06 0)
(0.0019616045 -2.2172353e-06 0)
(0.0019631683 -2.1899181e-06 0)
(0.001964716 -2.152135e-06 0)
(0.00196624 -2.1053282e-06 0)
(0.0019677334 -2.050833e-06 0)
(0.0019691905 -1.9898811e-06 0)
(0.0019706065 -1.9236044e-06 0)
(0.0019719772 -1.8530393e-06 0)
(0.0019732994 -1.7791306e-06 0)
(0.0019745705 -1.7027357e-06 0)
(0.0019757884 -1.6246293e-06 0)
(0.0019769519 -1.5455074e-06 0)
(0.00197806 -1.4659923e-06 0)
(0.0019791123 -1.386636e-06 0)
(0.0019801087 -1.307926e-06 0)
(0.0019810496 -1.2302882e-06 0)
(0.0019819356 -1.1540921e-06 0)
(0.0019827677 -1.0796543e-06 0)
(0.0019835469 -1.007243e-06 0)
(0.0019842748 -9.3708142e-07 0)
(0.0019849527 -8.6935184e-07 0)
(0.0019855823 -8.0419894e-07 0)
(0.0019861655 -7.4173345e-07 0)
(0.001986704 -6.8203514e-07 0)
(0.0019871998 -6.2515613e-07 0)
(0.0019876549 -5.7112366e-07 0)
(0.0019880713 -5.1994291e-07 0)
(0.001988451 -4.7159953e-07 0)
(0.0019887959 -4.2606213e-07 0)
(0.001989108 -3.8328445e-07 0)
(0.0019893893 -3.4320748e-07 0)
(0.0019896417 -3.0576142e-07 0)
(0.0019898671 -2.7086741e-07 0)
(0.0019900673 -2.3843925e-07 0)
(0.001990244 -2.0838478e-07 0)
(0.0019903989 -1.8060737e-07 0)
(0.0019905337 -1.5500702e-07 0)
(0.0019906498 -1.3148162e-07 0)
(0.0019907488 -1.0992776e-07 0)
(0.0019908322 -9.0241813e-08 0)
(0.0019909011 -7.232051e-08 0)
(0.0019909569 -5.6061826e-08 0)
(0.0019910009 -4.1365349e-08 0)
(0.001991034 -2.8133019e-08 0)
(0.0019910574 -1.6269304e-08 0)
(0.0019910721 -5.6818136e-09 0)
(0.0019910789 3.7186923e-09 0)
(0.0019910788 1.2017801e-08 0)
(0.0019910724 1.9297564e-08 0)
(0.0019910607 2.5636102e-08 0)
(0.0019910442 3.1107813e-08 0)
(0.0019910236 3.5783062e-08 0)
(0.0019909995 3.9728454e-08 0)
(0.0019909723 4.3006618e-08 0)
(0.0019909427 4.5676521e-08 0)
(0.001990911 4.7793322e-08 0)
(0.0019908776 4.9408701e-08 0)
(0.0019908429 5.0570783e-08 0)
(0.0019908073 5.1324453e-08 0)
(0.001990771 5.1711343e-08 0)
(0.0019907344 5.1770128e-08 0)
(0.0019906976 5.1536559e-08 0)
(0.0019906609 5.1043726e-08 0)
(0.0019906244 5.0322137e-08 0)
(0.0019905884 4.9399939e-08 0)
(0.0019905531 4.830303e-08 0)
(0.0019905184 4.7055228e-08 0)
(0.0019904846 4.5678425e-08 0)
(0.0019904518 4.4192696e-08 0)
(0.00199042 4.2616474e-08 0)
(0.0019903892 4.096662e-08 0)
(0.0019903597 3.9258605e-08 0)
(0.0019903313 3.7506536e-08 0)
(0.0019903042 3.5723356e-08 0)
(0.0019902784 3.3920819e-08 0)
(0.0019902539 3.21097e-08 0)
(0.0019902306 3.0299741e-08 0)
(0.0019902087 2.8499853e-08 0)
(0.001990188 2.671804e-08 0)
(0.0019901686 2.4961598e-08 0)
(0.0019901505 2.3237021e-08 0)
(0.0019901337 2.1550187e-08 0)
(0.001990118 1.9906263e-08 0)
(0.0019901036 1.8309873e-08 0)
(0.0019900903 1.6765001e-08 0)
(0.0019900781 1.5275149e-08 0)
(0.001990067 1.3843241e-08 0)
(0.0019900569 1.2471766e-08 0)
(0.0019900478 1.1162693e-08 0)
(0.0019900397 9.917592e-09 0)
(0.0019900325 8.7375704e-09 0)
(0.0019900261 7.6233713e-09 0)
(0.0019900206 6.575325e-09 0)
(0.0019900158 5.5934333e-09 0)
(0.0019900117 4.6773365e-09 0)
(0.0019900083 3.8263807e-09 0)
(0.0019900055 3.0396023e-09 0)
(0.0019900033 2.3157792e-09 0)
(0.0019900016 1.6534315e-09 0)
(0.0019900003 1.0508566e-09 0)
(0.0019899995 5.0614456e-10 0)
(0.0019899992 1.7198353e-11 0)
(0.0019899991 -4.1824078e-10 0)
(0.0019899994 -8.0258789e-10 0)
(0.00199 -1.1383842e-09 0)
(0.0019900008 -1.4283096e-09 0)
(0.0019900018 -1.6751569e-09 0)
(0.001990003 -1.8818691e-09 0)
(0.0019900043 -2.0515333e-09 0)
(0.0019900058 -2.1874606e-09 0)
(0.0019900073 -2.2932318e-09 0)
(0.001990009 -2.3728575e-09 0)
(0.0019900107 -2.4309337e-09 0)
(0.0019900124 -2.4729587e-09 0)
(0.0019900142 -2.5056981e-09 0)
(0.001990016 -2.5377649e-09 0)
(0.0019900178 -2.5802798e-09 0)
(0.0019900196 -2.6476346e-09 0)
(0.0019900215 -2.7577568e-09 0)
(0.0019900234 -2.9309092e-09 0)
(0.0019900253 -3.1857932e-09 0)
(0.0019900274 -3.5258187e-09 0)
(0.0019900297 -3.8599047e-09 0)
(-4.7581439e-05 0.00033003638 0)
(-0.00017166991 0.00040036931 0)
(-0.00013739194 0.00017135312 0)
(4.2531597e-05 -0.00013740772 0)
(0.0003282131 -0.0004114848 0)
(0.00067217239 -0.00060735585 0)
(0.0010375369 -0.00072047721 0)
(0.0013993908 -0.00076365904 0)
(0.0017420942 -0.00075466272 0)
(0.0020564633 -0.00071036778 0)
(0.0023376627 -0.00064462625 0)
(0.0025837654 -0.00056789147 0)
(0.002794785 -0.00048758555 0)
(0.0029720171 -0.00040869454 0)
(0.0031175801 -0.00033436217 0)
(0.0032340865 -0.00026639627 0)
(0.003324404 -0.00020566913 0)
(0.0033914832 -0.00015241991 0)
(0.0034382341 -0.00010647629 0)
(0.0034674414 -6.7412975e-05 0)
(0.0034817099 -3.466288e-05 0)
(0.0034834314 -7.5931483e-06 0)
(0.0034747692 1.4444275e-05 0)
(0.0034576547 3.2080438e-05 0)
(0.0034337929 4.5908729e-05 0)
(0.003404674 5.6474172e-05 0)
(0.003371588 6.4268593e-05 0)
(0.0033356414 6.9729766e-05 0)
(0.0032977751 7.3243082e-05 0)
(0.0032587819 7.5144744e-05 0)
(0.0032193232 7.5725791e-05 0)
(0.0031799452 7.5236476e-05 0)
(0.0031410936 7.3890695e-05 0)
(0.003103127 7.1870264e-05 0)
(0.0030663288 6.9328926e-05 0)
(0.0030309184 6.6396029e-05 0)
(0.0029970603 6.3179836e-05 0)
(0.0029648728 5.9770483e-05 0)
(0.0029344351 5.6242586e-05 0)
(0.002905794 5.2657516e-05 0)
(0.0028789691 4.906539e-05 0)
(0.0028539575 4.5506778e-05 0)
(0.0028307385 4.2014186e-05 0)
(0.0028092762 3.8613317e-05 0)
(0.0027895233 3.5324157e-05 0)
(0.002771423 3.2161893e-05 0)
(0.0027549118 2.91377e-05 0)
(0.0027399207 2.6259409e-05 0)
(0.002726377 2.3532063e-05 0)
(0.0027142059 2.0958403e-05 0)
(0.002703331 1.8539266e-05 0)
(0.0026936757 1.6273927e-05 0)
(0.0026851635 1.4160387e-05 0)
(0.002677719 1.2195616e-05 0)
(0.0026712683 1.0375755e-05 0)
(0.0026657393 8.6962931e-06 0)
(0.0026610621 7.15221e-06 0)
(0.0026571691 5.7381002e-06 0)
(0.0026539956 4.4482774e-06 0)
(0.0026514794 3.2768621e-06 0)
(0.0026495615 2.2178558e-06 0)
(0.0026481855 1.2652039e-06 0)
(0.0026472983 4.128487e-07 0)
(0.0026468494 -3.4522577e-07 0)
(0.0026467917 -1.0149567e-06 0)
(0.0026470808 -1.6021706e-06 0)
(0.0026476751 -2.112557e-06 0)
(0.0026485361 -2.5516469e-06 0)
(0.0026496277 -2.9247954e-06 0)
(0.0026509168 -3.2371676e-06 0)
(0.0026523726 -3.4937268e-06 0)
(0.0026539669 -3.6992257e-06 0)
(0.0026556738 -3.8582006e-06 0)
(0.0026574698 -3.9749671e-06 0)
(0.0026593333 -4.0536176e-06 0)
(0.0026612449 -4.0980209e-06 0)
(0.0026631872 -4.1118229e-06 0)
(0.0026651445 -4.0984486e-06 0)
(0.0026671029 -4.0611057e-06 0)
(0.0026690499 -4.002788e-06 0)
(0.0026709748 -3.9262814e-06 0)
(0.0026728681 -3.834169e-06 0)
(0.0026747216 -3.7288377e-06 0)
(0.0026765284 -3.612485e-06 0)
(0.0026782826 -3.4871266e-06 0)
(0.0026799794 -3.3546039e-06 0)
(0.0026816148 -3.216592e-06 0)
(0.0026831859 -3.0746077e-06 0)
(0.0026846903 -2.9300178e-06 0)
(0.0026861265 -2.7840474e-06 0)
(0.0026874933 -2.6377881e-06 0)
(0.0026887905 -2.4922062e-06 0)
(0.0026900181 -2.3481508e-06 0)
(0.0026911766 -2.2063617e-06 0)
(0.0026922669 -2.0674772e-06 0)
(0.0026932902 -1.9320417e-06 0)
(0.0026942481 -1.8005128e-06 0)
(0.0026951421 -1.6732686e-06 0)
(0.0026959744 -1.5506143e-06 0)
(0.002696747 -1.4327889e-06 0)
(0.0026974622 -1.319971e-06 0)
(0.0026981223 -1.2122851e-06 0)
(0.0026987296 -1.1098069e-06 0)
(0.0026992868 -1.0125685e-06 0)
(0.0026997961 -9.2056375e-07 0)
(0.0027002603 -8.3375226e-07 0)
(0.0027006816 -7.5206425e-07 0)
(0.0027010627 -6.7540431e-07 0)
(0.0027014058 -6.0365522e-07 0)
(0.0027017135 -5.366813e-07 0)
(0.0027019879 -4.7433171e-07 0)
(0.0027022313 -4.1644321e-07 0)
(0.0027024459 -3.628429e-07 0)
(0.0027026338 -3.1335058e-07 0)
(0.0027027969 -2.6778094e-07 0)
(0.0027029372 -2.2594544e-07 0)
(0.0027030565 -1.8765413e-07 0)
(0.0027031566 -1.5271709e-07 0)
(0.0027032391 -1.2094587e-07 0)
(0.0027033055 -9.2154585e-08 0)
(0.0027033574 -6.6160965e-08 0)
(0.002703396 -4.2787168e-08 0)
(0.0027034227 -2.1860562e-08 0)
(0.0027034387 -3.2142245e-09 0)
(0.0027034452 1.3312508e-08 0)
(0.0027034432 2.7873772e-08 0)
(0.0027034336 4.0616837e-08 0)
(0.0027034174 5.1682017e-08 0)
(0.0027033955 6.1202492e-08 0)
(0.0027033685 6.9304356e-08 0)
(0.0027033372 7.6106608e-08 0)
(0.0027033023 8.1721297e-08 0)
(0.0027032644 8.625363e-08 0)
(0.002703224 8.980218e-08 0)
(0.0027031816 9.2459081e-08 0)
(0.0027031376 9.4310277e-08 0)
(0.0027030926 9.5435778e-08 0)
(0.0027030467 9.5909926e-08 0)
(0.0027030005 9.5801698e-08 0)
(0.0027029542 9.5174966e-08 0)
(0.002702908 9.4088826e-08 0)
(0.0027028623 9.2597841e-08 0)
(0.0027028171 9.0752376e-08 0)
(0.0027027727 8.8598821e-08 0)
(0.0027027294 8.6179916e-08 0)
(0.0027026871 8.3534946e-08 0)
(0.002702646 8.070005e-08 0)
(0.0027026063 7.770838e-08 0)
(0.0027025679 7.459039e-08 0)
(0.0027025311 7.1373963e-08 0)
(0.0027024958 6.8084673e-08 0)
(0.0027024621 6.4745878e-08 0)
(0.00270243 6.1378952e-08 0)
(0.0027023995 5.800336e-08 0)
(0.0027023707 5.4636851e-08 0)
(0.0027023436 5.1295513e-08 0)
(0.002702318 4.7993941e-08 0)
(0.0027022941 4.4745273e-08 0)
(0.0027022718 4.156133e-08 0)
(0.0027022511 3.8452646e-08 0)
(0.0027022319 3.5428579e-08 0)
(0.0027022142 3.2497339e-08 0)
(0.0027021979 2.9666077e-08 0)
(0.0027021831 2.6940911e-08 0)
(0.0027021695 2.4327001e-08 0)
(0.0027021573 2.1828577e-08 0)
(0.0027021464 1.9448994e-08 0)
(0.0027021366 1.7190774e-08 0)
(0.0027021279 1.5055645e-08 0)
(0.0027021203 1.3044591e-08 0)
(0.0027021137 1.1157883e-08 0)
(0.0027021081 9.3951344e-09 0)
(0.0027021033 7.7553284e-09 0)
(0.0027020994 6.2368771e-09 0)
(0.0027020962 4.8376465e-09 0)
(0.0027020937 3.5550187e-09 0)
(0.0027020918 2.3859138e-09 0)
(0.0027020905 1.3268531e-09 0)
(0.0027020898 3.7397729e-10 0)
(0.0027020895 -4.768932e-10 0)
(0.0027020896 -1.2302474e-09 0)
(0.0027020902 -1.8908321e-09 0)
(0.002702091 -2.4636565e-09 0)
(0.0027020922 -2.953961e-09 0)
(0.0027020936 -3.367249e-09 0)
(0.0027020952 -3.7092967e-09 0)
(0.002702097 -3.986238e-09 0)
(0.0027020989 -4.2046538e-09 0)
(0.0027021009 -4.3717557e-09 0)
(0.002702103 -4.4956109e-09 0)
(0.0027021052 -4.585488e-09 0)
(0.0027021074 -4.6522698e-09 0)
(0.0027021097 -4.7089592e-09 0)
(0.002702112 -4.7711297e-09 0)
(0.0027021142 -4.8570829e-09 0)
(0.0027021165 -4.9869736e-09 0)
(0.0027021188 -5.1795326e-09 0)
(0.0027021211 -5.4446027e-09 0)
(0.0027021235 -5.7665828e-09 0)
(0.002702126 -6.0501168e-09 0)
(-4.9898323e-05 0.00045260555 0)
(-6.9253639e-05 0.00039305825 0)
(0.00019678699 -3.4311715e-05 0)
(0.00061990328 -0.00048109672 0)
(0.0011007777 -0.00082526802 0)
(0.0015800721 -0.0010416756 0)
(0.0020283689 -0.0011445277 0)
(0.0024337694 -0.0011602907 0)
(0.0027932491 -0.0011152501 0)
(0.003107618 -0.0010312408 0)
(0.0033791536 -0.00092496252 0)
(0.0036106413 -0.00080854273 0)
(0.003805026 -0.00069042129 0)
(0.0039653013 -0.00057621392 0)
(0.0040944743 -0.00046944249 0)
(0.0041955414 -0.00037211466 0)
(0.0042714584 -0.00028516876 0)
(0.0043251047 -0.00020880809 0)
(0.0043592477 -0.00014274824 0)
(0.0043765095 -8.639728e-05 0)
(0.0043793414 -3.898522e-05 0)
(0.0043700064 3.4479429e-07 0)
(0.0043505676 3.2474513e-05 0)
(0.0043228857 5.8267856e-05 0)
(0.0042886219 7.8544064e-05 0)
(0.0042492447 9.4062336e-05 0)
(0.0042060396 0.00010551398 0)
(0.0041601222 0.00011351981 0)
(0.004112451 0.00011863113 0)
(0.004063842 0.00012133295 0)
(0.004014983 0.00012204853 0)
(0.0039664469 0.0001211447 0)
(0.0039187056 0.00011893739 0)
(0.0038721416 0.00011569713 0)
(0.0038270595 0.00011165428 0)
(0.0037836967 0.00010700402 0)
(0.0037422321 0.0001019108 0)
(0.003702795 9.6512452e-05 0)
(0.0036654722 9.0923812e-05 0)
(0.0036303146 8.5239952e-05 0)
(0.0035973429 7.9539013e-05 0)
(0.003566553 7.3884678e-05 0)
(0.00353792 6.832833e-05 0)
(0.003511402 6.2910905e-05 0)
(0.0034869436 5.7664501e-05 0)
(0.0034644787 5.2613755e-05 0)
(0.0034439327 4.7777025e-05 0)
(0.0034252249 4.3167398e-05 0)
(0.0034082699 3.8793551e-05 0)
(0.0033929794 3.4660487e-05 0)
(0.0033792634 3.0770158e-05 0)
(0.0033670311 2.7121997e-05 0)
(0.0033561919 2.3713366e-05 0)
(0.0033466563 2.0539941e-05 0)
(0.0033383361 1.7596034e-05 0)
(0.0033311454 1.4874873e-05 0)
(0.0033250005 1.2368831e-05 0)
(0.0033198208 1.0069626e-05 0)
(0.0033155284 7.96849e-06 0)
(0.0033120487 6.0563109e-06 0)
(0.0033093106 4.3237548e-06 0)
(0.0033072461 2.7613678e-06 0)
(0.0033057912 1.3596636e-06 0)
(0.0033048848 1.0919754e-07 0)
(0.0033044698 -9.9937133e-07 0)
(0.0033044923 -1.9752281e-06 0)
(0.0033049018 -2.8273574e-06 0)
(0.0033056514 -3.5645079e-06 0)
(0.0033066971 -4.1951626e-06 0)
(0.0033079984 -4.7275144e-06 0)
(0.0033095176 -5.1694464e-06 0)
(0.0033112201 -5.5285166e-06 0)
(0.0033130742 -5.8119475e-06 0)
(0.0033150507 -6.026618e-06 0)
(0.003317123 -6.1790588e-06 0)
(0.0033192672 -6.2754513e-06 0)
(0.0033214615 -6.321627e-06 0)
(0.0033236864 -6.3230711e-06 0)
(0.0033259244 -6.2849262e-06 0)
(0.0033281599 -6.2119991e-06 0)
(0.0033303793 -6.1087675e-06 0)
(0.0033325705 -5.9793893e-06 0)
(0.0033347231 -5.8277119e-06 0)
(0.0033368281 -5.6572832e-06 0)
(0.0033388779 -5.4713624e-06 0)
(0.0033408661 -5.2729324e-06 0)
(0.0033427874 -5.0647116e-06 0)
(0.0033446376 -4.8491667e-06 0)
(0.0033464136 -4.6285257e-06 0)
(0.0033481127 -4.4047904e-06 0)
(0.0033497335 -4.1797496e-06 0)
(0.003351275 -3.9549918e-06 0)
(0.0033527369 -3.731918e-06 0)
(0.0033541193 -3.5117541e-06 0)
(0.003355423 -3.295563e-06 0)
(0.0033566491 -3.0842567e-06 0)
(0.0033577991 -2.8786077e-06 0)
(0.0033588748 -2.6792602e-06 0)
(0.0033598782 -2.4867407e-06 0)
(0.0033608117 -2.3014684e-06 0)
(0.0033616777 -2.1237649e-06 0)
(0.0033624787 -1.9538636e-06 0)
(0.0033632174 -1.7919187e-06 0)
(0.0033638967 -1.638013e-06 0)
(0.0033645194 -1.4921665e-06 0)
(0.0033650882 -1.3543431e-06 0)
(0.0033656061 -1.2244584e-06 0)
(0.0033660759 -1.102385e-06 0)
(0.0033665003 -9.8795935e-07 0)
(0.0033668821 -8.8098695e-07 0)
(0.003367224 -7.8124752e-07 0)
(0.0033675286 -6.8849951e-07 0)
(0.0033677984 -6.0248464e-07 0)
(0.0033680359 -5.2293148e-07 0)
(0.0033682434 -4.4955925e-07 0)
(0.0033684232 -3.8208069e-07 0)
(0.0033685775 -3.2020516e-07 0)
(0.0033687083 -2.6364087e-07 0)
(0.0033688175 -2.1209736e-07 0)
(0.003368907 -1.6528718e-07 0)
(0.0033689786 -1.2292773e-07 0)