/*--------------------------------*- C++ -*----------------------------------*\
| =========                 |                                                 |
| \\      /  F ield         | OpenFOAM: The Open Source CFD Toolbox           |
|  \\    /   O peration     | Version:  2406                                  |
|   \\  /    A nd           | Website:  www.openfoam.com                      |
|    \\/     M anipulation  |                                                 |
\*---------------------------------------------------------------------------*/
FoamFile
{
    version     2.0;
    format      ascii;
    arch        "LSB;label=32;scalar=64";
    class       surfaceScalarField;
    location    "1470";
    object      phi;
}
// * * * * * * * * * * * * * * * * * * * * * * * * * * * * * * * * * * * * * //

dimensions      [0 3 -1 0 0 0 0];

oriented        oriented;

internalField   nonuniform List<scalar> 
19351
(
-1.1624601e-13
1.1624601e-13
-2.0240813e-13
8.6162119e-14
-1.9134053e-13
-1.1067596e-14
-1.039895e-13
-8.7351032e-14
2.1203642e-14
-1.2519314e-13
1.5370819e-13
-1.3250455e-13
2.7513147e-13
-1.2142328e-13
3.7698428e-13
-1.0185281e-13
4.5708274e-13
-8.0098455e-14
5.1661249e-13
-5.9529754e-14
5.5823375e-13
-4.1621256e-14
5.8501168e-13
-2.6777928e-14
5.9988205e-13
-1.487037e-14
6.0542707e-13
-5.5450264e-15
6.0381459e-13
1.612481e-15
5.9681318e-13
7.0014158e-15
5.8584059e-13
1.0972586e-14
5.720202e-13
1.3820394e-14
5.5623426e-13
1.5785939e-14
5.3917046e-13
1.7063798e-14
5.2136084e-13
1.780962e-14
5.0321364e-13
1.8147197e-14
4.8503907e-13
1.8174571e-14
4.6706995e-13
1.7969124e-14
4.4947821e-13
1.7591734e-14
4.3238809e-13
1.7090122e-14
4.1588654e-13
1.650155e-14
4.0003157e-13
1.5854972e-14
3.8485881e-13
1.517276e-14
3.7038673e-13
1.4472078e-14
3.5662075e-13
1.3765979e-14
3.4355647e-13
1.3064277e-14
3.3118223e-13
1.2374243e-14
3.1948107e-13
1.1701159e-14
3.0843232e-13
1.1048755e-14
2.9801276e-13
1.0419559e-14
2.8819759e-13
9.8151681e-15
2.7896112e-13
9.2364702e-15
2.7027731e-13
8.6838119e-15
2.6212017e-13
8.1571344e-15
2.544641e-13
7.6560779e-15
2.4728403e-13
7.1800644e-15
2.4055567e-13
6.7283616e-15
2.3425554e-13
6.300132e-15
2.2836107e-13
5.8944712e-15
2.2285063e-13
5.5104369e-15
2.1770356e-13
5.1470713e-15
2.1290014e-13
4.8034169e-15
2.0842161e-13
4.4785295e-15
2.0425013e-13
4.1714864e-15
2.0036873e-13
3.8813929e-15
1.9676135e-13
3.6073866e-15
1.9341271e-13
3.3486399e-15
1.9030834e-13
3.1043613e-15
1.8743455e-13
2.8737967e-15
1.8477832e-13
2.6562286e-15
1.8232734e-13
2.4509758e-15
1.8006995e-13
2.2573928e-15
1.7799508e-13
2.0748681e-15
1.7609226e-13
1.9028235e-15
1.7435155e-13
1.7407123e-15
1.7276353e-13
1.5880178e-15
1.7131928e-13
1.4442521e-15
1.7001032e-13
1.3089542e-15
1.6882863e-13
1.1816891e-15
1.6776659e-13
1.0620458e-15
1.6681695e-13
9.4963613e-16
1.6597286e-13
8.4409343e-16
1.6522779e-13
7.4507128e-16
1.6457554e-13
6.5224216e-16
1.6401025e-13
5.6529638e-16
1.6352631e-13
4.8394082e-16
1.6311841e-13
4.0789805e-16
1.627815e-13
3.3690515e-16
1.6251079e-13
2.7071287e-16
1.6230171e-13
2.0908464e-16
1.6214991e-13
1.5179585e-16
1.6205128e-13
9.8632889e-17
1.6200188e-13
4.9392569e-17
1.61998e-13
3.8812693e-18
1.6203609e-13
-3.8085522e-17
1.6211277e-13
-7.6684087e-17
1.6222486e-13
-1.1208278e-16
1.623693e-13
-1.444427e-16
1.6254322e-13
-1.73918e-16
1.6274387e-13
-2.0065651e-16
1.6296867e-13
-2.2480004e-16
1.6321516e-13
-2.4648487e-16
1.63481e-13
-2.6584186e-16
1.63764e-13
-2.8299692e-16
1.6406207e-13
-2.9807117e-16
1.6437325e-13
-3.1118131e-16
1.6469569e-13
-3.2243966e-16
1.6502764e-13
-3.3195455e-16
1.6536747e-13
-3.3983031e-16
1.6571364e-13
-3.461676e-16
1.660647e-13
-3.5106335e-16
1.6641931e-13
-3.5461106e-16
1.6677621e-13
-3.5690073e-16
1.6713423e-13
-3.5801914e-16
1.6749228e-13
-3.5804972e-16
1.6784935e-13
-3.5707283e-16
1.6820452e-13
-3.551656e-16
1.6855692e-13
-3.5240225e-16
1.6890577e-13
-3.4885384e-16
1.6925036e-13
-3.4458862e-16
1.6959003e-13
-3.3967182e-16
1.699242e-13
-3.3416589e-16
1.7025233e-13
-3.2813038e-16
1.7057395e-13
-3.2162214e-16
1.7088864e-13
-3.1469521e-16
1.7119605e-13
-3.07401e-16
1.7149583e-13
-2.9978824e-16
1.7178774e-13
-2.9190309e-16
1.7207152e-13
-2.8378914e-16
1.7234701e-13
-2.7548752e-16
1.7261405e-13
-2.6703688e-16
1.7287252e-13
-2.5847354e-16
1.7312235e-13
-2.4983145e-16
1.7336349e-13
-2.4114233e-16
1.7359593e-13
-2.324357e-16
1.7381967e-13
-2.2373893e-16
1.7403474e-13
-2.1507737e-16
1.7424122e-13
-2.0647432e-16
1.7443917e-13
-1.9795123e-16
1.746287e-13
-1.8952762e-16
1.7480992e-13
-1.8122131e-16
1.7498296e-13
-1.7304832e-16
1.7514799e-13
-1.6502316e-16
1.7530515e-13
-1.5715866e-16
1.7545461e-13
-1.494663e-16
1.7559657e-13
-1.4195596e-16
1.757312e-13
-1.346364e-16
1.7585872e-13
-1.2751492e-16
1.7597932e-13
-1.2059782e-16
1.7609321e-13
-1.1389002e-16
1.762006e-13
-1.0739567e-16
1.7630172e-13
-1.0111766e-16
1.7639678e-13
-9.5058227e-17
1.7648599e-13
-8.9218418e-17
1.7656959e-13
-8.3598833e-17
1.7664779e-13
-7.8199003e-17
1.7672081e-13
-7.3018096e-17
1.7678886e-13
-6.8054292e-17
1.7685217e-13
-6.3305583e-17
1.7691094e-13
-5.8769081e-17
1.7696538e-13
-5.4441777e-17
1.770157e-13
-5.0319844e-17
1.770621e-13
-4.6399489e-17
1.7710478e-13
-4.2676196e-17
1.7714392e-13
-3.9145515e-17
1.7717972e-13
-3.5802331e-17
1.7721237e-13
-3.2641725e-17
1.7724202e-13
-2.9658203e-17
1.7726887e-13
-2.6846476e-17
1.7729307e-13
-2.4200743e-17
1.7731479e-13
-2.1715498e-17
1.7733417e-13
-1.9384817e-17
1.7735138e-13
-1.7203054e-17
1.7736654e-13
-1.5164215e-17
1.773798e-13
-1.3262631e-17
1.773913e-13
-1.1492367e-17
1.7740114e-13
-9.8477865e-18
1.7740947e-13
-8.3230502e-18
1.7741638e-13
-6.9126366e-18
1.7742199e-13
-5.6109024e-18
1.7742641e-13
-4.4124781e-18
1.7742972e-13
-3.3119526e-18
1.7743202e-13
-2.3041684e-18
1.7743341e-13
-1.3840013e-18
1.7743395e-13
-5.4653531e-19
1.7743374e-13
2.1302463e-19
1.7743284e-13
8.9932569e-19
1.7743133e-13
1.516829e-18
1.7742926e-13
2.0698886e-18
1.774267e-13
2.5625918e-18
1.774237e-13
2.9990084e-18
1.7742031e-13
3.3828962e-18
1.774166e-13
3.7180332e-18
1.7741259e-13
4.0078339e-18
1.7740833e-13
4.2558521e-18
1.7740387e-13
4.4652841e-18
1.7739923e-13
4.6395324e-18
1.7739445e-13
4.7816743e-18
1.7738955e-13
4.8952056e-18
1.7738457e-13
4.9834707e-18
1.7737952e-13
5.0505092e-18
1.7737442e-13
5.1006179e-18
1.7736928e-13
5.1395376e-18
1.7736411e-13
5.174324e-18
1.7735889e-13
5.2151515e-18
1.7735362e-13
5.2761879e-18
1.7734824e-13
5.3791907e-18
1.7734268e-13
5.5570875e-18
1.7733682e-13
5.8621665e-18
1.7733044e-13
6.3753748e-18
1.7732323e-13
7.2157769e-18
1.7731467e-13
8.5583777e-18
1.7730388e-13
1.0791143e-17
1.4041646e-17
-1.5066149e-13
2.669075e-13
-1.9198715e-13
1.2748777e-13
-4.7814135e-14
-1.5524061e-13
2.1142256e-13
-3.4658772e-13
5.1270002e-13
-4.264706e-13
8.0702384e-13
-4.2682837e-13
1.0676053e-12
-3.8200476e-13
1.2833019e-12
-3.1754943e-13
1.4523682e-12
-2.4916468e-13
1.5779839e-12
-1.8514546e-13
1.6655006e-12
-1.2913798e-13
1.7208855e-12
-8.2162809e-14
1.7499102e-12
-4.3895071e-14
1.7577769e-12
-1.3411702e-14
1.7489861e-12
1.0403263e-14
1.7273297e-12
2.8657797e-14
1.6959471e-12
4.2355216e-14
1.657404e-12
5.23635e-14
1.6137759e-12
5.9413975e-14
1.5667268e-12
6.4112884e-14
1.5175791e-12
6.6957406e-14
1.4673741e-12
6.8352194e-14
1.416924e-12
6.8624671e-14
1.3668546e-12
6.8038477e-14
1.3176414e-12
6.6804941e-14
1.2696388e-12
6.5092706e-14
1.2231046e-12
6.3035732e-14
1.1782197e-12
6.0739882e-14
1.1351041e-12
5.8288344e-14
1.0938302e-12
5.5746046e-14
1.0544329e-12
5.3163272e-14
1.0169186e-12
5.0578584e-14
9.8127161e-13
4.8021204e-14
9.4745984e-13
4.5512927e-14
9.1543892e-13
4.3069675e-14
8.8515574e-13
4.070274e-14
8.5655112e-13
3.8419782e-14
8.2956196e-13
3.6225636e-14
8.0412283e-13
3.4122944e-14
7.8016729e-13
3.2112668e-14
7.5762888e-13
3.0194493e-14
7.3644179e-13
2.8367149e-14
7.1654149e-13
2.6628661e-14
6.9786508e-13
2.4976549e-14
6.8035156e-13
2.3407986e-14
6.6394209e-13
2.1919912e-14
6.4858002e-13
2.0509136e-14
6.3421104e-13
1.91724e-14
6.2078313e-13
1.7906441e-14
6.0824659e-13
1.6708025e-14
5.96554e-13
1.5573983e-14
5.8566016e-13
1.4501227e-14
5.7552203e-13
1.3486772e-14
5.6609865e-13
1.252774e-14
5.5735107e-13
1.1621373e-14
5.4924227e-13
1.0765027e-14
5.4173707e-13
9.9561826e-15
5.3480202e-13
9.1924376e-15
5.2840538e-13
8.4715079e-15
5.2251698e-13
7.7912238e-15
5.1710817e-13
7.1495258e-15
5.1215172e-13
6.5444616e-15
5.076218e-13
5.9741804e-15
5.0349382e-13
5.4369295e-15
4.9974446e-13
4.9310487e-15
4.9635154e-13
4.4549663e-15
4.9329398e-13
4.007194e-15
4.9055175e-13
3.5863227e-15
4.8810581e-13
3.1910181e-15
4.8593803e-13
2.8200162e-15
4.8403121e-13
2.4721194e-15
4.8236896e-13
2.1461925e-15
4.809357e-13
1.8411591e-15
4.797166e-13
1.5559975e-15
4.7869758e-13
1.2897379e-15
4.7786521e-13
1.0414587e-15
4.7720672e-13
8.1028374e-16
4.7670997e-13
5.9537907e-16
4.7636341e-13
3.9595052e-16
4.7615605e-13
2.1124092e-16
4.7607744e-13
4.0527865e-17
4.7611763e-13
-1.1687868e-16
4.7626719e-13
-2.6163849e-16
4.7651713e-13
-3.9438291e-16
4.7685893e-13
-5.1571648e-16
4.7728449e-13
-6.2621892e-16
4.7778614e-13
-7.2644655e-16
4.7835659e-13
-8.169337e-16
4.7898894e-13
-8.9819375e-16
4.7967666e-13
-9.7072048e-16
4.8041358e-13
-1.034989e-15
4.8119385e-13
-1.0914567e-15
4.8201198e-13
-1.1405641e-15
4.8286276e-13
-1.1827357e-15
4.8374131e-13
-1.2183805e-15
4.8464303e-13
-1.2478928e-15
4.8556362e-13
-1.2716524e-15
4.8649903e-13
-1.2900253e-15
4.874455e-13
-1.3033643e-15
4.8839949e-13
-1.3120088e-15
4.8935772e-13
-1.3162858e-15
4.9031716e-13
-1.3165096e-15
4.9127497e-13
-1.3129824e-15
4.9222857e-13
-1.3059945e-15
4.9317554e-13
-1.2958245e-15
4.9411369e-13
-1.2827395e-15
4.9504101e-13
-1.2669951e-15
4.9595568e-13
-1.2488358e-15
4.9685604e-13
-1.2284954e-15
4.9774062e-13
-1.2061966e-15
4.9860807e-13
-1.1821515e-15
4.9945723e-13
-1.1565621e-15
5.0028706e-13
-1.1296197e-15
5.0109666e-13
-1.101506e-15
5.0188527e-13
-1.0723926e-15
5.0265222e-13
-1.0424415e-15
5.0339699e-13
-1.0118053e-15
5.0411914e-13
-9.8062739e-16
5.0481835e-13
-9.4904216e-16
5.0549438e-13
-9.1717533e-16
5.0614709e-13
-8.8514408e-16
5.0677641e-13
-8.5305738e-16
5.0738235e-13
-8.210162e-16
5.0796498e-13
-7.8911383e-16
5.0852447e-13
-7.574361e-16
5.09061e-13
-7.2606167e-16
5.0957484e-13
-6.9506233e-16
5.100663e-13
-6.6450321e-16
5.1053572e-13
-6.3444319e-16
5.1098349e-13
-6.0493501e-16
5.1141005e-13
-5.760257e-16
5.1181585e-13
-5.4775674e-16
5.1220138e-13
-5.2016447e-16
5.1256714e-13
-4.932802e-16
5.1291368e-13
-4.6713065e-16
5.1324153e-13
-4.4173804e-16
5.1355125e-13
-4.1712057e-16
5.1384342e-13
-3.9329239e-16
5.1411863e-13
-3.7026418e-16
5.1437745e-13
-3.4804303e-16
5.1462049e-13
-3.2663308e-16
5.1484832e-13
-3.0603531e-16
5.1506155e-13
-2.8624821e-16
5.1526077e-13
-2.6726754e-16
5.1544655e-13
-2.4908703e-16
5.1561948e-13
-2.3169806e-16
5.1578012e-13
-2.1509035e-16
5.1592906e-13
-1.9925165e-16
5.1606682e-13
-1.8416842e-16
5.1619397e-13
-1.6982549e-16
5.1631104e-13
-1.5620668e-16
5.1641853e-13
-1.4329449e-16
5.1651696e-13
-1.3107075e-16
5.1660681e-13
-1.1951621e-16
5.1668858e-13
-1.0861122e-16
5.1676271e-13
-9.8335294e-17
5.1682967e-13
-8.8667785e-17
5.1688987e-13
-7.9587457e-17
5.1694374e-13
-7.1073081e-17
5.1699168e-13
-6.3103049e-17
5.1703407e-13
-5.5655938e-17
5.1707129e-13
-4.8710121e-17
5.1710369e-13
-4.2244271e-17
5.171316e-13
-3.623703e-17
5.1715536e-13
-3.0667459e-17
5.1717526e-13
-2.5514726e-17
5.1719161e-13
-2.0758503e-17
5.1720468e-13
-1.6378696e-17
5.1721473e-13
-1.2355779e-17
5.1722202e-13
-8.6705838e-18
5.1722677e-13
-5.3045449e-18
5.1722923e-13
-2.2395517e-18
5.1722959e-13
5.4190025e-19
5.1722805e-13
3.0567637e-18
5.172248e-13
5.3213911e-18
5.1722001e-13
7.3515345e-18
5.1721384e-13
9.1623994e-18
5.1720646e-13
1.0768552e-17
5.1719799e-13
1.2184063e-17
5.1718858e-13
1.3422419e-17
5.1717834e-13
1.4496757e-17
5.1716739e-13
1.5419746e-17
5.1715582e-13
1.6203909e-17
5.1714374e-13
1.6861634e-17
5.1713123e-13
1.740561e-17
5.1711837e-13
1.784905e-17
5.1710521e-13
1.8206339e-17
5.1709182e-13
1.8493802e-17
5.1707823e-13
1.8730876e-17
5.1706446e-13
1.8941876e-17
5.1705052e-13
1.9158391e-17
5.1703637e-13
1.9423173e-17
5.1702196e-13
1.9795161e-17
5.1700716e-13
2.0357079e-17
5.169918e-13
2.1224512e-17
5.1697562e-13
2.2554098e-17
5.1695829e-13
2.4539809e-17
5.1693945e-13
2.7399769e-17
5.1691893e-13
3.131411e-17
3.5495043e-17
-6.4480095e-14
3.3138759e-13
1.6731535e-13
-1.0430767e-13
5.8774399e-13
-5.7566925e-13
1.0456084e-12
-8.0445217e-13
1.4728058e-12
-8.5366795e-13
1.8431772e-12
-7.9719982e-13
2.1493689e-12
-6.8819646e-13
2.3927187e-12
-5.6089923e-13
2.5783023e-12
-4.3474825e-13
2.7126407e-12
-3.1948381e-13
2.8026364e-12
-2.1913376e-13
2.8550324e-12
-1.345588e-13
2.87612e-12
-6.4982612e-14
2.8715888e-12
-8.8805587e-15
2.846462e-12
3.5530126e-14
2.8050932e-12
7.0026561e-14
2.7511996e-12
9.6248797e-14
2.6879133e-12
1.1564979e-13
2.6178428e-12
1.2948454e-13
2.5431369e-12
1.3881871e-13
2.4655481e-12
1.4454627e-13
2.3864899e-12
1.4741031e-13
2.3070907e-12
1.4802392e-13
2.2282395e-12
1.468897e-13
2.1506271e-12
1.4441736e-13
2.0747808e-12
1.4093899e-13
2.0010942e-12
1.3672232e-13
1.9298521e-12
1.31982e-13
1.8612514e-12
1.2688903e-13
1.7954187e-12
1.2157877e-13
1.7324244e-12
1.1615752e-13
1.672295e-12
1.1070803e-13
1.6150222e-12
1.0529401e-13
1.5605712e-12
9.996388e-14
1.5088871e-12
9.4753747e-14
1.4598999e-12
8.9689947e-14
1.4135287e-12
8.4791031e-14
1.3696849e-12
8.0069407e-14
1.3282752e-12
7.5532663e-14
1.2892032e-12
7.1184626e-14
1.2523715e-12
6.7026225e-14
1.2176825e-12
6.3056167e-14
1.1850397e-12
5.9271491e-14
1.1543482e-12
5.5667998e-14
1.1255156e-12
5.2240598e-14
1.0984519e-12
4.898358e-14
1.0730702e-12
4.5890828e-14
1.0492866e-12
4.2955984e-14
1.0270205e-12
4.0172578e-14
1.0061944e-12
3.7534127e-14
9.8673418e-13
3.5034209e-14
9.6856889e-13
3.2666522e-14
9.5163074e-13
3.0424919e-14
9.3585504e-13
2.8303443e-14
9.2118007e-13
2.6296343e-14
9.07547e-13
2.4398091e-14
8.948998e-13
2.2603382e-14
8.831851e-13
2.0907144e-14
8.7235207e-13
1.9304534e-14
8.6235236e-13
1.7790933e-14
8.5313994e-13
1.6361946e-14
8.4467101e-13
1.501339e-14
8.369039e-13
1.3741291e-14
8.2979896e-13
1.2541876e-14
8.2331844e-13
1.1411561e-14
8.1742646e-13
1.0346946e-14
8.1208885e-13
9.3448044e-15
8.072731e-13
8.4020756e-15
8.0294826e-13
7.5158556e-15
7.9908489e-13
6.6833891e-15
7.9565495e-13
5.9020612e-15
7.9263175e-13
5.1693895e-15
7.8998989e-13
4.4830165e-15
7.8770519e-13
3.8407025e-15
7.8575461e-13
3.2403182e-15
7.8411623e-13
2.6798385e-15
7.8276918e-13
2.1573356e-15
7.8169358e-13
1.6709735e-15
7.8087053e-13
1.2190019e-15
7.8028202e-13
7.9975127e-16
7.7991092e-13
4.1162717e-16
7.7974094e-13
5.3106295e-17
7.7975657e-13
-2.7726877e-16
7.7994308e-13
-5.8089313e-16
7.8028646e-13
-8.5910343e-16
7.8077343e-13
-1.1131814e-15
7.8139134e-13
-1.3443575e-15
7.8212822e-13
-1.5538135e-15
7.8297271e-13
-1.7426852e-15
7.8391405e-13
-1.9120646e-15
7.8494206e-13
-2.0630029e-15
7.8604712e-13
-2.1965117e-15
7.8722012e-13
-2.3135658e-15
7.8845249e-13
-2.4151037e-15
7.8973614e-13
-2.5020303e-15
7.9106346e-13
-2.5752171e-15
7.9242731e-13
-2.6355042e-15
7.9382099e-13
-2.6837009e-15
7.9523821e-13
-2.7205868e-15
7.9667311e-13
-2.7469125e-15
7.9812023e-13
-2.7634007e-15
7.9957446e-13
-2.7707462e-15
8.010311e-13
-2.7696172e-15
8.0248576e-13
-2.7606553e-15
8.0393441e-13
-2.7444766e-15
8.0537334e-13
-2.7216712e-15
8.0679915e-13
-2.6928051e-15
8.0820873e-13
-2.658419e-15
8.0959927e-13
-2.6190301e-15
8.109682e-13
-2.5751312e-15
8.1231324e-13
-2.5271927e-15
8.1363234e-13
-2.4756614e-15
8.1492368e-13
-2.420962e-15
8.1618567e-13
-2.3634971e-15
8.1741693e-13
-2.3036477e-15
8.1861626e-13
-2.2417738e-15
8.1978267e-13
-2.1782146e-15
8.2091533e-13
-2.1132893e-15
8.2201358e-13
-2.0472974e-15
8.2307693e-13
-1.9805192e-15
8.24105e-13
-1.9132164e-15
8.2509757e-13
-1.8456329e-15
8.2605455e-13
-1.7779949e-15
8.2697595e-13
-1.7105118e-15
8.2786189e-13
-1.6433766e-15
8.2871259e-13
-1.5767668e-15
8.2952837e-13
-1.5108444e-15
8.3030963e-13
-1.4457573e-15
8.3105682e-13
-1.3816392e-15
8.317705e-13
-1.3186108e-15
8.3245125e-13
-1.2567797e-15
8.3309974e-13
-1.1962419e-15
8.3371665e-13
-1.1370812e-15
8.3430274e-13
-1.0793715e-15
8.3485879e-13
-1.0231753e-15
8.3538559e-13
-9.6854636e-16
8.35884e-13
-9.1552834e-16
8.3635487e-13
-8.6415727e-16
8.3679906e-13
-8.1445999e-16
8.3721748e-13
-7.66457e-16
8.37611e-13
-7.2016048e-16
8.3798054e-13
-6.7557743e-16
8.38327e-13
-6.3270738e-16
8.3865128e-13
-5.9154572e-16
8.3895427e-13
-5.5208123e-16
8.3923688e-13
-5.142995e-16
8.3949997e-13
-4.7818027e-16
8.3974441e-13
-4.4370096e-16
8.3997108e-13
-4.108339e-16
8.401808e-13
-3.7954986e-16
8.4037441e-13
-3.4981515e-16
8.4055271e-13
-3.2159527e-16
8.4071649e-13
-2.9485187e-16
8.4086652e-13
-2.6954642e-16
8.4100355e-13
-2.4563708e-16
8.411283e-13
-2.2308237e-16
8.4124147e-13
-2.0183812e-16
8.4134374e-13
-1.8186089e-16
8.4143577e-13
-1.6310508e-16
8.415182e-13
-1.4552615e-16
8.4159162e-13
-1.2907795e-16
8.4165663e-13
-1.137156e-16
8.4171378e-13
-9.9393072e-17
8.417636e-13
-8.6065801e-17
8.4180663e-13
-7.3688532e-17
8.4184333e-13
-6.2217565e-17
8.4187418e-13
-5.1608948e-17
8.4189962e-13
-4.1820301e-17
8.4192008e-13
-3.2809433e-17
8.4193594e-13
-2.4535666e-17
8.419476e-13
-1.6958936e-17
8.419554e-13
-1.0040557e-17
8.4195968e-13
-3.7428574e-18
8.4196077e-13
1.9706456e-18
8.4195896e-13
7.1350449e-18
8.4195453e-13
1.1784502e-17
8.4194774e-13
1.5951511e-17
8.4193884e-13
1.9667906e-17
8.4192806e-13
2.2963662e-17
8.4191561e-13
2.586846e-17
8.419017e-13
2.8410137e-17
8.4188651e-13
3.0616687e-17
8.418702e-13
3.2514525e-17
8.4185293e-13
3.4130929e-17
8.4183484e-13
3.5492382e-17
8.4181606e-13
3.6627409e-17
8.417967e-13
3.7565384e-17
8.4177686e-13
3.8339954e-17
8.417566e-13
3.8988902e-17
8.4173598e-13
3.9558538e-17
8.4171504e-13
4.0105393e-17
8.4169376e-13
4.070231e-17
8.4167211e-13
4.1442426e-17
8.4165002e-13
4.2446478e-17
8.4162738e-13
4.3865321e-17
8.4160406e-13
4.5876962e-17
8.4157994e-13
4.8656172e-17
8.4155503e-13
5.2310925e-17
8.4152965e-13
5.6698504e-17
6.0633855e-17
2.6976342e-13
6.1624172e-14
1.1224603e-12
-9.5700454e-13
1.9089882e-12
-1.3621971e-12
2.5109063e-12
-1.4063703e-12
2.9581981e-12
-1.3009598e-12
3.2905347e-12
-1.1295364e-12
3.5380966e-12
-9.3575839e-13
3.7206404e-12
-7.4344305e-13
3.8506806e-12
-5.6478839e-13
3.9366815e-12
-4.0548479e-13
3.9850512e-12
-2.675034e-13
4.0011679e-12
-1.5067557e-13
3.9898413e-12
-5.3656014e-14
3.9554757e-12
2.5485089e-14
3.902104e-12
8.8901793e-14
3.8333848e-12
1.3874581e-13
3.7525876e-12
1.7704595e-13
3.6625879e-12
2.0564953e-13
3.5658753e-12
2.2619713e-13
3.4645747e-12
2.4011931e-13
3.3604748e-12
2.4864616e-13
3.2550615e-12
2.5282359e-13
3.1495528e-12
2.5353264e-13
3.044933e-12
2.5150946e-13
2.9419857e-12
2.4736469e-13
2.8413233e-12
2.4160143e-13
2.7434141e-12
2.3463152e-13
2.6486062e-12
2.2678988e-13
2.5571481e-12
2.1834716e-13
2.4692064e-12
2.0952047e-13
2.3848812e-12
2.004827e-13
2.3042189e-12
1.9137029e-13
2.2272231e-12
1.8228987e-13
2.1538632e-12
1.7332374e-13
2.0840825e-12
1.6453445e-13
2.0178039e-12
1.5596858e-13
1.954935e-12
1.4765991e-13
1.8953725e-12
1.3963192e-13
1.8390052e-12
1.3189997e-13
1.7857169e-12
1.2447294e-13
1.7353884e-12
1.1735466e-13
1.6878995e-12
1.1054504e-13
1.6431301e-12
1.0404097e-13
1.600961e-12
9.7837036e-14
1.5612755e-12
9.1926148e-14
1.5239591e-12
8.6299975e-14
1.4889006e-12
8.0949331e-14
1.4559921e-12
7.586447e-14
1.4251294e-12
7.1035314e-14
1.3962118e-12
6.6451636e-14
1.3691428e-12
6.2103202e-14
1.3438295e-12
5.7979876e-14
1.3201827e-12
5.4071699e-14
1.2981172e-12
5.0368956e-14
1.2775513e-12
4.6862211e-14
1.2584071e-12
4.3542343e-14
1.2406099e-12
4.0400564e-14
1.2240886e-12
3.7428429e-14
1.2087753e-12
3.4617845e-14
1.1946052e-12
3.1961065e-14
1.1815164e-12
2.9450692e-14
1.1694501e-12
2.7079666e-14
1.1583502e-12
2.4841258e-14
1.148163e-12
2.2729062e-14
1.1388376e-12
2.0736981e-14
1.1303253e-12
1.8859213e-14
1.1225799e-12
1.7090243e-14
1.1155571e-12
1.5424828e-14
1.109215e-12
1.3857985e-14
1.1035134e-12
1.2384977e-14
1.0984142e-12
1.1001299e-14
1.0938809e-12
9.7026702e-15
1.0898789e-12
8.4850191e-15
1.0863751e-12
7.3444712e-15
1.0833381e-12
6.2773394e-15
1.0807378e-12
5.2801123e-15
1.0785457e-12
4.3494445e-15
1.0767345e-12
3.4821461e-15
1.0752784e-12
2.675174e-15
1.0741525e-12
1.9256226e-15
1.0733334e-12
1.2307158e-15
1.0727987e-12
5.8779869e-16
1.0725271e-12
-5.6690076e-18
1.0724983e-12
-5.5212103e-16
1.0726931e-12
-1.0538896e-15
1.0730932e-12
-1.5132128e-15
1.073681e-12
-1.9322387e-15
1.0744403e-12
-2.3130314e-15
1.0753551e-12
-2.6575741e-15
1.0764109e-12
-2.9677754e-15
1.0775933e-12
-3.2454711e-15
1.0788892e-12
-3.4924294e-15
1.080286e-12
-3.7103527e-15
1.0817718e-12
-3.9008818e-15
1.0833354e-12
-4.0655968e-15
1.0849662e-12
-4.2060211e-15
1.0866543e-12
-4.323622e-15
1.0883904e-12
-4.4198138e-15
1.0901658e-12
-4.495958e-15
1.0919722e-12
-4.5533664e-15
1.0938021e-12
-4.5933009e-15
1.0956484e-12
-4.616976e-15
1.0975043e-12
-4.6255585e-15
1.0993638e-12
-4.62017e-15
1.1012212e-12
-4.6018863e-15
1.1030713e-12
-4.5717397e-15
1.1049092e-12
-4.5307184e-15
1.1067305e-12
-4.4797686e-15
1.1085313e-12
-4.4197939e-15
1.1103078e-12
-4.3516575e-15
1.1120568e-12
-4.2761814e-15
1.1137753e-12
-4.1941485e-15
1.1154606e-12
-4.1063024e-15
1.1171105e-12
-4.0133488e-15
1.1187228e-12
-3.9159557e-15
1.1202958e-12
-3.8147548e-15
1.1218279e-12
-3.7103416e-15
1.1233179e-12
-3.6032772e-15
1.1247647e-12
-3.4940884e-15
1.1261674e-12
-3.3832687e-15
1.1275255e-12
-3.2712799e-15
1.1288384e-12
-3.158552e-15
1.1301059e-12
-3.0454852e-15
1.1313278e-12
-2.9324499e-15
1.1325043e-12
-2.8197888e-15
1.1336353e-12
-2.7078168e-15
1.1347213e-12
-2.5968231e-15
1.1357626e-12
-2.487071e-15
1.1367598e-12
-2.3788007e-15
1.1377134e-12
-2.272228e-15
1.1386241e-12
-2.1675479e-15
1.1394928e-12
-2.0649333e-15
1.1403203e-12
-1.964538e-15
1.1411074e-12
-1.8664958e-15
1.1418552e-12
-1.7709239e-15
1.1425645e-12
-1.6779208e-15
1.1432366e-12
-1.5875708e-15
1.1438724e-12
-1.4999412e-15
1.144473e-12
-1.4150872e-15
1.1450396e-12
-1.3330487e-15
1.1455733e-12
-1.2538552e-15
1.1460752e-12
-1.1775229e-15
1.1465466e-12
-1.1040592e-15
1.1469885e-12
-1.0334596e-15
1.1474021e-12
-9.6571252e-16
1.1477886e-12
-9.0079611e-16
1.1481491e-12
-8.3868298e-16
1.1484847e-12
-7.7933653e-16
1.1487966e-12
-7.2271623e-16
1.1490859e-12
-6.6877352e-16
1.1493535e-12
-6.1745718e-16
1.1496006e-12
-5.6870907e-16
1.1498282e-12
-5.2246958e-16
1.1500374e-12
-4.786732e-16
1.150229e-12
-4.3725391e-16
1.150404e-12
-3.9814083e-16
1.1505635e-12
-3.6126338e-16
1.1507081e-12
-3.265471e-16
1.150839e-12
-2.9391844e-16
1.1509567e-12
-2.633009e-16
1.1510623e-12
-2.346194e-16
1.1511564e-12
-2.0779678e-16
1.1512397e-12
-1.8275765e-16
1.1513131e-12
-1.5942535e-16
1.1513771e-12
-1.3772527e-16
1.1514325e-12
-1.1758227e-16
1.1514798e-12
-9.8923421e-17
1.1515197e-12
-8.1675961e-17
1.1515526e-12
-6.5769386e-17
1.1515792e-12
-5.1134051e-17
1.1516e-12
-3.7702468e-17
1.1516153e-12
-2.5408672e-17
1.1516258e-12
-1.4188647e-17
1.1516317e-12
-3.9805116e-18
1.1516336e-12
5.2759509e-18
1.1516317e-12
1.3638326e-17
1.1516265e-12
2.1162908e-17
1.1516183e-12
2.7902987e-17
1.1516074e-12
3.3911008e-17
1.151594e-12
3.9236285e-17
1.1515785e-12
4.3927871e-17
1.1515611e-12
4.8031858e-17
1.151542e-12
5.1594887e-17
1.1515214e-12
5.4661348e-17
1.1514997e-12
5.7277467e-17
1.1514768e-12
5.9488771e-17
1.151453e-12
6.1344784e-17
1.1514285e-12
6.2897323e-17
1.1514032e-12
6.4205959e-17
1.1513775e-12
6.5337694e-17
1.1513512e-12
6.6373393e-17
1.1513245e-12
6.7408871e-17
1.1512974e-12
6.8561403e-17
1.1512699e-12
6.9968892e-17
1.1512419e-12
7.1789483e-17
1.1512136e-12
7.418158e-17
1.151185e-12
7.7262345e-17
1.1511563e-12
8.1013439e-17
1.1511279e-12
8.5133623e-17
8.8541528e-17
2.2882028e-12
-2.2265786e-12
3.703127e-12
-2.3719288e-12
4.4045032e-12
-2.0635733e-12
4.7823765e-12
-1.7842435e-12
4.9928925e-12
-1.5114757e-12
5.1131637e-12
-1.2498076e-12
5.1827764e-12
-1.0053711e-12
5.2198135e-12
-7.8048018e-13
5.2319306e-12
-5.7690545e-13
5.2224382e-12
-3.9599241e-13
5.1931098e-12
-2.3817495e-13
5.1453968e-12
-1.0296257e-13
5.080885e-12
1.0855708e-14
5.0013911e-12
1.0497905e-13
4.9089185e-12
1.8137439e-13
4.8055656e-12
2.420987e-13
4.6934215e-12
2.8919001e-13
4.5744856e-12
3.2458546e-13
4.4506112e-12
3.5007153e-13
4.3234719e-12
3.6725863e-13
4.1945453e-12
3.7757272e-13
4.0651107e-12
3.8225822e-13
3.9362553e-12
3.8238804e-13
3.8088871e-12
3.7887768e-13
3.6837506e-12
3.7250116e-13
3.5614445e-12
3.6390751e-13
3.4424393e-12
3.5363679e-13
3.3270941e-12
3.4213507e-13
3.2156731e-12
3.297681e-13
3.10836e-12
3.1683357e-13
3.0052709e-12
3.0357184e-13
2.9064658e-12
2.9017538e-13
2.8119589e-12
2.7679676e-13
2.7217271e-12
2.6355559e-13
2.6357172e-12
2.5054435e-13
2.5538525e-12
2.3783327e-13
2.4760379e-12
2.254745e-13
2.4021643e-12
2.1350549e-13
2.3321124e-12
2.0195187e-13
2.2657556e-12
1.9082979e-13
2.2029624e-12
1.8014786e-13
2.1435987e-12
1.6990871e-13
2.0875293e-12
1.6011035e-13
2.0346192e-12
1.5074717e-13
1.9847345e-12
1.4181081e-13
1.9377436e-12
1.3329088e-13
1.8935175e-12
1.251755e-13
1.8519302e-12
1.1745172e-13
1.8128596e-12
1.1010595e-13
1.7761871e-12
1.0312416e-13
1.7417981e-12
9.6492177e-14
1.7095822e-12
9.0195804e-14
1.6794329e-12
8.4220989e-14
1.6512479e-12
7.8553913e-14
1.6249291e-12
7.3181075e-14
1.600382e-12
6.8089347e-14
1.5775166e-12
6.3266011e-14
1.5562462e-12
5.8698792e-14
1.5364882e-12
5.4375872e-14
1.5181634e-12
5.0285898e-14
1.5011961e-12
4.6417983e-14
1.485514e-12
4.2761708e-14
1.4710482e-12
3.930711e-14
1.4577326e-12
3.6044671e-14
1.4455043e-12
3.2965313e-14
1.4343031e-12
3.0060375e-14
1.4240717e-12
2.7321604e-14
1.4147554e-12
2.4741136e-14
1.4063019e-12
2.2311482e-14
1.3986614e-12
2.0025508e-14
1.3917863e-12
1.787642e-14
1.3856312e-12
1.5857751e-14
1.3801529e-12
1.3963335e-14
1.37531e-12
1.2187303e-14
1.3710633e-12
1.0524059e-14
1.3673752e-12
8.9682652e-15
1.3642098e-12
7.5148331e-15
1.361533e-12
6.1589045e-15
1.3593124e-12
4.8958398e-15
1.3575168e-12
3.7212056e-15
1.3561167e-12
2.6307622e-15
1.3550841e-12
1.6204526e-15
1.354392e-12
6.8639183e-16
1.354015e-12
-1.7514299e-16
1.3539289e-12
-9.6772439e-16
1.3541104e-12
-1.6947802e-15
1.3545378e-12
-2.3596016e-15
1.3551901e-12
-2.9653508e-15
1.3560476e-12
-3.5150693e-15
1.3570915e-12
-4.0116828e-15
1.358304e-12
-4.4580076e-15
1.3596684e-12
-4.8567555e-15
1.3611686e-12
-5.2105385e-15
1.3627896e-12
-5.5218732e-15
1.3645171e-12
-5.7931848e-15
1.3663379e-12
-6.0268098e-15
1.3682393e-12
-6.2250003e-15
1.3702094e-12
-6.3899256e-15
1.3722371e-12
-6.5236756e-15
1.374312e-12
-6.6282623e-15
1.3764243e-12
-6.7056229e-15
1.378565e-12
-6.7576203e-15
1.3807255e-12
-6.786046e-15
1.3828979e-12
-6.7926205e-15
1.385075e-12
-6.7789958e-15
1.3872501e-12
-6.7467561e-15
1.3894168e-12
-6.6974191e-15
1.3915694e-12
-6.6324374e-15
1.3937028e-12
-6.5531996e-15
1.3958122e-12
-6.4610313e-15
1.3978932e-12
-6.3571967e-15
1.399942e-12
-6.2428989e-15
1.4019549e-12
-6.1192822e-15
1.403929e-12
-5.9874323e-15
1.4058614e-12
-5.8483781e-15
1.4077498e-12
-5.7030925e-15
1.4095919e-12
-5.5524942e-15
1.4113861e-12
-5.3974484e-15
1.4131308e-12
-5.2387689e-15
1.4148247e-12
-5.0772185e-15
1.416467e-12
-4.9135114e-15
1.4180567e-12
-4.7483141e-15
1.4195935e-12
-4.5822467e-15
1.4210769e-12
-4.4158852e-15
1.4225069e-12
-4.249762e-15
1.4238834e-12
-4.0843683e-15
1.4252068e-12
-3.920155e-15
1.4264772e-12
-3.7575351e-15
1.4276953e-12
-3.5968841e-15
1.4288616e-12
-3.4385427e-15
1.4299769e-12
-3.2828175e-15
1.4310419e-12
-3.1299834e-15
1.4320577e-12
-2.9802844e-15
1.4330251e-12
-2.8339356e-15
1.4339453e-12
-2.6911242e-15
1.4348194e-12
-2.5520121e-15
1.4356486e-12
-2.4167356e-15
1.4364341e-12
-2.285409e-15
1.4371771e-12
-2.1581237e-15
1.437879e-12
-2.0349517e-15
1.4385411e-12
-1.9159451e-15
1.4391647e-12
-1.8011394e-15
1.4397512e-12
-1.6905522e-15
1.4403019e-12
-1.5841872e-15
1.4408182e-12
-1.4820329e-15
1.4413015e-12
-1.3840659e-15
1.4417531e-12
-1.2902497e-15
1.4421743e-12
-1.2005383e-15
1.4425664e-12
-1.1148747e-15
1.4429309e-12
-1.0331941e-15
1.4432688e-12
-9.5542261e-16
1.4435816e-12
-8.8148049e-16
1.4438704e-12
-8.1128041e-16
1.4441365e-12
-7.4473094e-16
1.444381e-12
-6.8173456e-16
1.444605e-12
-6.2219106e-16
1.4448097e-12
-5.6599561e-16
1.4449962e-12
-5.1304187e-16
1.4451655e-12
-4.6322019e-16
1.4453187e-12
-4.1642047e-16
1.4454566e-12
-3.7253049e-16
1.4455802e-12
-3.3143844e-16
1.4456905e-12
-2.9303145e-16
1.4457883e-12
-2.5719782e-16
1.4458744e-12
-2.2382571e-16
1.4459496e-12
-1.9280503e-16
1.4460147e-12
-1.6402645e-16
1.4460704e-12
-1.3738279e-16
1.4461174e-12
-1.1276843e-16
1.4461564e-12
-9.0080188e-17
1.4461879e-12
-6.9217103e-17
1.4462125e-12
-5.0080856e-17
1.4462309e-12
-3.257591e-17
1.4462436e-12
-1.6609423e-17
1.4462509e-12
-2.0917872e-18
1.4462535e-12
1.1063941e-17
1.4462517e-12
2.2941165e-17
1.446246e-12
3.3620893e-17
1.4462367e-12
4.3180512e-17
1.4462243e-12
5.1695368e-17
1.446209e-12
5.9237387e-17
1.4461911e-12
6.5877113e-17
1.446171e-12
7.1682324e-17
1.446149e-12
7.672054e-17
1.4461252e-12
8.1057875e-17
1.4460999e-12
8.4762066e-17
1.4460734e-12
8.7901895e-17
1.4460457e-12
9.0550876e-17
1.4460171e-12
9.2787571e-17
1.4459878e-12
9.4699957e-17
1.4459578e-12
9.6386534e-17
1.4459272e-12
9.7960603e-17
1.4458962e-12
9.9549986e-17
1.4458649e-12
1.012968e-16
1.4458333e-12
1.033469e-16
1.4458017e-12
1.0582982e-16
1.4457702e-12
1.0880661e-16
1.445739e-12
1.1218676e-16
1.4457085e-12
1.1564949e-16
1.1847449e-16
9.7061987e-12
-2.9127729e-13
8.4197909e-12
-1.085521e-12
7.6942931e-12
-1.3380755e-12
7.2391111e-12
-1.3290615e-12
6.932839e-12
-1.2052036e-12
6.7122842e-12
-1.0292528e-12
6.541279e-12
-8.3436589e-13
6.398872e-12
-6.3807316e-13
6.2722569e-12
-4.5029039e-13
6.1531877e-12
-2.7692317e-13
6.0362788e-12
-1.2126603e-13
5.9181129e-12
1.5203332e-14
5.7966778e-12
1.3229079e-13
5.6709911e-12
2.3066574e-13
5.5408206e-12
3.115449e-13
5.4064444e-12
3.7647487e-13
5.2684736e-12
4.2716081e-13
5.1277163e-12
4.6534276e-13
4.9850761e-12
4.9271171e-13
4.8414787e-12
5.1085606e-13
4.6978209e-12
5.2123057e-13
4.5549374e-12
5.251417e-13
4.4135812e-12
5.2374427e-13
4.2744132e-12
5.1804567e-13
4.1379995e-12
5.0891482e-13
4.0048133e-12
4.9709375e-13
3.8752396e-12
4.8321047e-13
3.7495826e-12
4.6779204e-13
3.6280735e-12