/*--------------------------------*- C++ -*----------------------------------*\
| =========                 |                                                 |
| \\      /  F ield         | OpenFOAM: The Open Source CFD Toolbox           |
|  \\    /   O peration     | Version:  2406                                  |
|   \\  /    A nd           | Website:  www.openfoam.com                      |
|    \\/     M anipulation  |                                                 |
\*---------------------------------------------------------------------------*/
FoamFile
{
    version     2.0;
    format      ascii;
    arch        "LSB;label=32;scalar=64";
    class       volScalarField;
    location    "1470";
    object      T;
}
// * * * * * * * * * * * * * * * * * * * * * * * * * * * * * * * * * * * * * //

dimensions      [0 0 0 0 0 0 0];

internalField   nonuniform List<scalar> 
9800
(
1
1
1
1
1
1
1
1
1
1
1
1
1
1
1
1
1
1
1
1
1
1
1
1
1
1
1
1
1
1
1
1
1
1
1
1
1
1
1
1
1
1
1
1
1
1
1
1
1
1
1
1
1
1
1
1
1
1
1
1
1
0.99999999
0.99999999
0.99999999
0.99999999
0.99999999
0.99999999
0.99999999
0.99999999
0.99999999
0.99999999
0.99999999
0.99999999
0.99999999
0.99999999
0.99999999
0.99999999
0.99999999
0.99999999
0.99999999
0.99999999
0.99999999
0.99999999
0.99999999
0.99999999
0.99999999
0.99999999
0.99999999
0.99999999
0.99999999
0.99999999
0.99999999
0.99999998
0.99999998
0.99999998
0.99999998
0.99999998
0.99999998
0.99999998
0.99999998
0.99999998
0.99999998
0.99999998
0.99999998
0.99999998
0.99999998
0.99999998
0.99999998
0.99999998
0.99999998
0.99999998
0.99999998
0.99999997
0.99999997
0.99999997
0.99999997
0.99999997
0.99999997
0.99999997
0.99999997
0.99999997
0.99999997
0.99999997
0.99999997
0.99999997
0.99999997
0.99999997
0.99999997
0.99999997
0.99999997
0.99999997
0.99999997
0.99999997
0.99999997
0.99999997
0.99999997
0.99999997
0.99999997
0.99999997
0.99999996
0.99999996
0.99999996
0.99999996
0.99999996
0.99999996
0.99999996
0.99999996
0.99999996
0.99999996
0.99999996
0.99999996
0.99999996
0.99999996
0.99999996
0.99999996
0.99999996
0.99999996
0.99999996
0.99999996
0.99999996
0.99999996
0.99999996
0.99999996
0.99999996
0.99999996
0.99999996
0.99999996
0.99999996
0.99999996
0.99999996
0.99999996
0.99999996
0.99999996
0.99999996
0.99999996
0.99999996
0.99999996
0.99999996
0.99999996
0.99999996
0.99999996
0.99999996
0.99999996
0.99999996
0.99999996
0.99999996
0.99999996
0.99999996
0.99999996
0.99999996
0.99999996
0.99999996
0.99999996
0.99999996
0.99999996
0.99999996
0.99999996
0.99999996
0.99999996
0.99999996
1
1
1
1
1
1
1
1
1
1
1
1
1
1
1
1
1
1
1
1
1
1
1
1
1
1
1
1
1
1
1
1
1
1
1
1
1
1
1
1
1
1
1
1
1
1
1
1
1
1
1
1
1
1
1
1
1
1
1
1
1
1
1
1
1
1
1
1
1
1
1
1
1
1
1
1
1
1
1
1
1
1
1
1
1
1
1
1
1
1
1
1
1
1
1
1
1
1
1
1
0.99999999
0.99999999
0.99999999
0.99999999
0.99999999
0.99999999
0.99999999
0.99999999
0.99999999
0.99999999
0.99999999
0.99999999
0.99999999
0.99999999
0.99999999
0.99999999
0.99999999
0.99999999
0.99999999
0.99999999
0.99999999
0.99999999
0.99999999
0.99999999
0.99999999
0.99999999
0.99999999
0.99999999
0.99999999
0.99999999
0.99999999
0.99999999
0.99999999
0.99999999
0.99999999
0.99999999
0.99999999
0.99999999
0.99999999
0.99999999
0.99999999
0.99999999
0.99999999
0.99999999
0.99999999
0.99999999
0.99999999
0.99999999
0.99999999
0.99999999
0.99999999
0.99999999
0.99999999
0.99999999
0.99999999
0.99999999
0.99999999
0.99999999
0.99999999
0.99999999
0.99999999
0.99999999
0.99999999
0.99999999
0.99999999
0.99999999
0.99999999
0.99999999
0.99999999
0.99999999
0.99999999
0.99999999
0.99999999
0.99999998
0.99999998
0.99999998
0.99999998
0.99999998
0.99999998
0.99999998
0.99999998
0.99999998
0.99999998
0.99999998
0.99999998
0.99999998
0.99999998
0.99999998
0.99999998
0.99999998
0.99999998
0.99999998
0.99999998
0.99999998
0.99999998
0.99999998
0.99999998
0.99999998
0.99999998
0.99999998
1
1
1
1
1
1
1
1
1
1
1
1
1
1
1
1
1
1
1
1
1
1
1
1
1
1
1
1
1
1
1
1
1
1
1
1
1
1
1
1
1
1
1
1
1
1
1
1
1
1
1
1
1
1
1
1
1
1
1
1
1
1
1
1
1
1
1
1
1
1
1
1
1
1
1
1
1
1
1
1
1
1
1
1
1
1
1
1
1
1
1
1
1
1
1
1
1
1
1
1
1
1
1
1
1
1
1
1
1
1
1
1
1
1
1
1
1
1
1
1
1
1
1
1
1
1
1
1
1
1
1
1
1
1
1
1
1
1
1
1
1
1
1
1
1
1
1
0.99999999
0.99999999
0.99999999
0.99999999
0.99999999
0.99999999
0.99999999
0.99999999
0.99999999
0.99999999
0.99999999
0.99999999
0.99999999
0.99999999
0.99999999
0.99999999
0.99999999
0.99999999
0.99999999
0.99999999
0.99999999
0.99999999
0.99999999
0.99999999
0.99999999
0.99999999
0.99999999
0.99999999
0.99999999
0.99999999
0.99999999
0.99999999
0.99999999
0.99999999
0.99999999
0.99999999
0.99999999
0.99999999
0.99999999
0.99999999
0.99999999
0.99999999
0.99999999
0.99999999
0.99999999
0.99999999
0.99999999
0.99999999
0.99999999
0.99999999
0.99999999
0.99999999
0.99999999
1
1
1
1
1
1
1
1
1
1
1
1
1
1
1
1
1
1
1
1
1
1
1
1
1
1
1
1
1
1
1
1
1
1
1
1
1
1
1
1
1
1
1
1
1
1
1
1
1
1
1
1
1
1
1
1
1
1
1
1
1
1
1
1
1
1
1
1
1
1
1
1
1
1
1
1
1
1
1
1
1
1
1
1
1
1
1
1
1
1
1
1
1
1
1
1
1
1
1
1
1
1
1
1
1
1
1
1
1
1
1
1
1
1
1
1
1
1
1
1
1
1
1
1
1
1
1
1
1
1
1
1
1
1
1
1
1
1
1
1
1
1
1
1
1
1
1
1
1
1
1
1
1
1
1
1
1
1
1
1
1
1
1
1
1
1
1
1
1
1
1
1
1
1
1
1
1
1
1
1
1
1
1
1
1
1
1
1
1
1
1
1
1
1
1
1
1
1
1
1
1
1
1
1
1
1
1
1
1
1
1
1
1
1
1
1
1
1
1
1
1
1
1
1
1
1
1
1
1
1
1
1
1
1
1
1
1
1
1
1
1
1
1
1
1
1
1
1
1
1
1
1
1
1
1
1
1
1
1
1
1
1
1
1
1
1
1
1
1
1
1
1
1
1
1
1
1
1
1
1
1
1
1
1
1
1
1
1
1
1
1
1
1
1
1
1
1
1
1
1
1
1
1
1
1
1
1
1
1
1
1
1
1
1
1
1
1
1
1
1
1
1
1
1
1
1
1
1
1
1
1
1
1
1
1
1
1
1
1
1
1
1
1
1
1
1
1
1
1
1
1
1
1
1
1
1
1
1
1
1
1
1
1
1
1
1
1
1
1
1
1
1
1
1
1
1
1
1
1
1
1
1
1
1
1
1
1
1
1
1
1
1
1
1
1
1
1
1
1
1
1
1
1
1
1
1
1
1
1
1
1
1
1
1
1
1
1
1
1
1
1
1
1
1
1
1
1
1
1
1
1
1
1
1
1
1
1
1
1
1
1
1
1
1
1
1
1
1
1
1
1
1
1
1
1
1
1
1
1
1
1
1
1
1
1
1
1
1
1
1
1
1
1
1
1
1
1
1
1
1
1
1
1
1
1
1
1
1
1
1
1
1
1
1
1
1
1
1
1
1
1
1
1
1
1
1
1
1
1
1
1
1
1
1
1
1
1
1
1
1
1
1
1
1
1
1
1
1
1
1
1
1
1
1
1
1
1
1
1
1
1
1
1
1
1
1
1
1
1
1
1
1
1
1
1
1
1
1
1
1
1
1
1
1
1
1
1
1
1
1
1
1
1
1
1
1
1
1
1
1
1
1
1
1
1
1
1
1
1
1
1
1
1
1
1
1
1
1
1
1
1
1
1
1
1
1
1
1
1
1
1
1
1
1
1
1
1
1
1
1
1
1
1
1
1
1
1
1
1
1
1
1
1
1
1
1
1
1
1
1
1
1
1
1
1
1
1
1
1
1
1
1
1
1
1
1
1
1
1
1
1
1
1
1
1
1
1
1
1
1
1
1
1
1
1
1
1
1
1
1
1
1
1
1
1
1
1
1
1
1
1
1
1
1
1
1
1
1
1
1
1
1
1
1
1
1
1
1
1
1
1
1
1
1
1
1
1
1
1
1
1
1
1
1
1
1
1
1
1
1
1
1
1
1
1
1
1
1
1
1
1
1
1
1
1
1
1
1
1
1
1
1
1
1
1
1
1
1
1
1
1
1
1
1
1
1
1
1
1
1
1
1
1
1
1
1
1
1
1
1
1
1
1
1
1
1
1
1
1
1
1
1
1
1
1
1
1
1
1
1
1
1
1
1
1
1
1
1
1
1
1
1
1
1
1
1
1
1
1
1
1
1
1
1
1
1
1
1
1
1
1
1
1
1
1
1
1
1
1
1
1
1
1
1
1
1
1
1
1
1
1
1
1
1
1
1
1
1
1
1
1
1
1
1
1
1
1
1
1
1
1
1
1
1
1
1
1
1
1
1
1
1
1
1
1
1
1
1
1
1
1
1
1
1
1
1
1
1
1
1
1
1
1
1
1
1
1
1
1
1
1
1
1
1
1
1
1
1
1
1
1
1
1
1
1
1
1
1
1
1
1
1
1
1
1
1
1
1
1
1
1
1
1
1
1
1
1
1
1
1
1
1
1
1
1
1
1
1
1
1
1
1
1
1
1
1
1
1
1
1
1
1
1
1
1
1
1
1
1
1
1
1
1
1
1
1
1
1
1
1
1
1
1
1
1
1
1
1
1
1
1
1
1
1
1
1
1
1
1
1
1
1
1
1
1
1
1
1
1
1
1
1
1
1
1
1
1
1
1
1
1
1
1
1
1
1
1
1
1
1
1
1
1
1
1
1
1
1
1
1
1
1
1
1
1
1
1
1
1
1
1
1
1
1
1
1
1
1
1
1
1
1
1
1
1
1
1
1
1
1
1
1
1
1
1
1
1
1
1
1
1
1
1
1
1
1
1
1
1
1
1
1
1
1
1
1
1
1
1
1
1
1
1
1
1
1
1
1
1
1
1
1
1
1
1
1
1
1
1
1
1
1
1
1
1
1
1
1
1
1
1
1
1
1
1
1
1
1
1
1
1
1
1
1
1
1
1
1
1
1
1
1
1
1
1
1
1
1
1
1
1
1
1
1
1
1
1
1
1
1
1
1
1
1
1
1
1
1
1
1
1
1
1
1
1
1
1
1
1
1
1
1
1
1
1
1
1
1
1
1
1
1
1
1
1
1
1
1
1
1
1
1
1
1
1
1
1
1
1
1
1
1
1
1
1
1
1
1
1
1
1
1
1
1
1
1
1
1
1
1
1
1
1
1
1
1
1
1
1
1
1
1
1
1
1
1
1
1
1
1
1
1
1
1
1
1
1
1
1
1
1
1
1
1
1
1
1
1
1
1
1
1
1
1
1
1
1
1
1
1
1
1
1
1
1
1
1
1
1
1
1
1
1
1
1
1
1
1
1
1
1
1
1
1
1
1
1
1
1
1
1
1
1
1
1
1
1
1
1
1
1
1
1
1
1
1
1
1
1
1
1
1
1
1
1
1
1
1
1
1
1
1
1
1
1
1
1
1
1
1
1
1
1
1
1
1
1
1
1
1
1
1
1
1
1
1
1
1
1
1
1
1
1
1
1
1
1
1
1
1
1
1
1
1
1
1
1
1
1
1
1
1
1
1
1
1
1
1
1
1
1
1
1
1
1
1
1
1
1
1
1
1
1
1
1
1
1
1
1
1
1
1
1
1
1
1
1
1
1
1
1
1
1
1
1
1
1
1
1
1
1
1
1
1
1
1
1
1
1
1
1
1
1
1
1
1
1
1
1
1
1
1
1
1
1
1
1
1
1
1
1
1
1
1
1
1
1
1
1
1
1
1
1
1
1
1
1
1
1
1
1
1
1
1
1
1
1
1
1
1
1
1
1
1
1
1
1
1
1
1
1
1
1
1
1
1
1
1
1
1
1
1
1
1
1
1
1
1
1
1
1
1
1
1
1
1
1
1
1
1
1
1
1
1
1
1
1
1
1
1
1
1
1
1
1
1
1
1
1
1
1
1
1
1
1
1
1
1
1
1
1
1
1
1
1
1
1
1
1
1
1
1
1
1
1
1
1
1
1
1
1
1
1
1
1
1
1
1
1
1
1
1
1
1
1
1
1
1
1
1
1
1
1
1
1
1
1
1
1
1
1
1
1
1
1
1
1
1
1
1
1
1
1
1
1
1
1
1
1
1
1
1
1
1
1
1
1
1
1
1
1
1
1
1
1
1
1
1
1
1
1
1
1
1
1
1
1
1
1
1
1
1
1
1
1
1
1
1
1
1
1
1
1
1
1
1
1
1
1
1
1
1
1
1
1
1
1
1
1
1
1
1
1
1
1
1
1
1
1
1
1
1
1
1
1
1
1
1
1
1
1
1
1
1
1
1
1
1
1
1
1
1
1
1
1
1
1
1
1
1
1
1
1
1
1
1
1
1
1
1
1
1
1
1
1
1
1
1
1
1
1
1
1
1
1
1
1
1
1
1
1
1
1
1
1
1
1
1
1
1
1
1
1
1
1
1
1
1
1
1
1
1
1
1
1
1
1
1
1
1
1
1
1
1
1
1
1
1
1
1
1
1
1
1
1
1
1
1
1
1
1
1
1
1
1
1
1
1
1
1
1
1
1
1
1
1
1
1
1
1
1
1
1
1
1
1
1
1
1
1
1
1
1
1
1
1
1
1
1
1
1
1
1
1
1
1
1
1
1
1
1
1
1
1
1
1
1
1
1
1
1
1
1
1
1
1
1
1
1
1
1
1
1
1
1
1
1
1
1
1
1
1
1
1
1
1
1
1
1
1
1
1
1
1
1
1
1
1
1
1
1
1
1
1
1
1
1
1
1
1
1
1
1
1
1
1
1
1
1
1
1
1
1
1
1
1
1
1
1
1
1
1
1
1
1
1
1
1
1
1
1
1
1
1
1
1
1
1
1
1
1
1
1
1
1
1
1
1
1
1
1
1
1
1
1
1
1
1
1
1
1
1
1
1
1
1
1
1
1
1
1
1
1
1
1
1
1
1
1
1
1
1
1
1
1
1
1
1
1
1
1
1
1
1
1
1
1
1
1
1
1
1
1
1
1
1
1
1
1
1
1
1
1
1
1
1
1
1
1
1
1
1
1
1
1
1
1
1
1
1
1
1
1
1
1
1
1
1
1
1
1
1
1
1
1
1
1
1
1
1
1
1
1
1
1
1
1
1
1
1
1
1
1
1
1
1
1
1
1
1
1
1
1
1
1
1
1
1
1
1
1
1
1
1
1
1
1
1
1
1
1
1
1
1
1
1
1
1
1
1
1
1
1
1
1
1
1
1
1
1
1
0.99999999
0.99999999
0.99999999
0.99999999
0.99999999
0.99999999
0.99999999
0.99999999
0.99999999
0.99999999
0.99999999
0.99999999
0.99999999
0.99999999
0.99999999
0.99999999
0.99999999
0.99999999
0.99999999
0.99999999
0.99999999
0.99999999
0.99999999
0.99999999
0.99999999
0.99999999
0.99999999
0.99999999
0.99999999
0.99999999
0.99999999
0.99999999
0.99999999
0.99999999
0.99999999
0.99999999
0.99999999
0.99999999
0.99999999
0.99999746
0.99999638
0.99999602
0.99999607
0.99999631
0.99999666
0.99999703
0.9999974
0.99999776
0.99999808
0.99999837
0.99999863
0.99999885
0.99999904
0.99999921
0.99999935
0.99999946
0.99999956
0.99999964
0.99999971
0.99999976
0.9999998
0.99999984
0.99999987
0.99999989
0.99999991
0.99999993
0.99999994
0.99999995
0.99999996
0.99999997
0.99999997
0.99999998
0.99999998
0.99999998
0.99999999
0.99999999
0.99999999
0.99999999
0.99999999
0.99999999
1
1
1
1
1
1
1
1
1
1
1
1
1
1
1
1
1
1
1
1
1
1
1
1
1
1
1
1
1
1
1
1
1
1
1
1
1
1
1
1
1
1
1
1
1
1
1
1
1
1
1
1
1
1
1
1
1
1
1
1
1
1
1
1
1
1
0.99999999
0.99999999
0.99999999
0.99999999
0.99999999
0.99999999
0.99999999
0.99999999
0.99999999
0.99999999
0.99999999
0.99999999
0.99999999
0.99999999
0.99999998
0.99999998
0.99999998
0.99999998
0.99999998
0.99999998
0.99999998
0.99999998
0.99999998
0.99999998
0.99999998
0.99999997
0.99999997
0.99999997
0.99999997
0.99999997
0.99999997
0.99999997
0.99999997
0.99999997
0.99999997
0.99999997
0.99999997
0.99999997
0.99999997
0.99999997
0.99999996
0.99999996
0.99999996
0.99999996
0.99999996
0.99999996
0.99999996
0.99999996
0.99999996
0.99999996
0.99999996
0.99999996
0.99999996
0.99999996
0.99999996
0.99999996
0.99999996
0.99999996
0.99999996
0.99999996
0.99999996
0.99999996
0.99999996
0.99999996
0.99999996
0.99999996
0.99999996
0.99999996
0.99999996
0.99999996
0.99999996
0.99999996
0.99999996
0.99999996
0.99999996
0.99999996
0.99999996
0.99999996
0.99999996
0.99999996
0.99999996
0.99999996
0.99999996
0.99999996
0.99999996
0.99999996
0.99999996
0.99999996
0.99999996
0.99999996
0.99999996
0.99999996
0.99999996
0.96934077
0.98493773
0.99042918
0.99336519
0.99519421
0.996431
0.99730996
0.99795392
0.99843476
0.99879821
0.9990751
0.99928714
0.99945006
0.99957548
0.99967216
0.99974672
0.99980424
0.99984863
0.99988287
0.99990929
0.99992968
0.99994542
0.99995758
0.99996697
0.99997423
0.99997985
0.9999842
0.99998758
0.99999021
0.99999226
0.99999386
0.99999511
0.99999609
0.99999686
0.99999747
0.99999796
0.99999834
0.99999864
0.99999889
0.99999908
0.99999924
0.99999937
0.99999947
0.99999956
0.99999962
0.99999968
0.99999973
0.99999977
0.9999998
0.99999982
0.99999985
0.99999987
0.99999988
0.99999989
0.99999991
0.99999992
0.99999992
0.99999993
0.99999994
0.99999994
0.99999995
0.99999995
0.99999995
0.99999996
0.99999996
0.99999996
0.99999996
0.99999997
0.99999997
0.99999997
0.99999997
0.99999997
0.99999997
0.99999997
0.99999997
0.99999998
0.99999998
0.99999998
0.99999998
0.99999998
0.99999998
0.99999998
0.99999998
0.99999998
0.99999998
0.99999998
0.99999998
0.99999998
0.99999998
0.99999998
0.99999998
0.99999998
0.99999998
0.99999998
0.99999997
0.99999997
0.99999997
0.99999997
0.99999997
0.99999997
0.99999996
0.99999996
0.99999996
0.99999995
0.99999995
0.99999995
0.99999994
0.99999994
0.99999994
0.99999993
0.99999993
0.99999992
0.99999992
0.99999991
0.99999991
0.99999991
0.9999999
0.9999999
0.99999989
0.99999989
0.99999988
0.99999988
0.99999987
0.99999986
0.99999986
0.99999985
0.99999985
0.99999984
0.99999984
0.99999984
0.99999983
0.99999983
0.99999982
0.99999982
0.99999981
0.99999981
0.99999981
0.9999998
0.9999998
0.99999979
0.99999979
0.99999979
0.99999978
0.99999978
0.99999978
0.99999978
0.99999977
0.99999977
0.99999977
0.99999977
0.99999976
0.99999976
0.99999976
0.99999976
0.99999976
0.99999975
0.99999975
0.99999975
0.99999975
0.99999975
0.99999975
0.99999975
0.99999975
0.99999974
0.99999974
0.99999974
0.99999974
0.99999974
0.99999974
0.99999974
0.99999974
0.99999974
0.99999974
0.99999974
0.99999974
0.99999974
0.99999974
0.99999974
0.99999974
0.99999974
0.99999974
0.99999974
0.99999974
0.99999974
0.99999974
0.99999974
0.99999973
0.99999973
0.99999973
0.99999973
0.99999973
0.99999973
0.99999973
0.99999973
0.99999973
0.99999973
0.99999973
0.99999973
0.99999973
0.99999973
0.003635026
0.66559234
0.82780925
0.89385693
0.92880543
0.94993886
0.96377059
0.97329033
0.98006278
0.9849897
0.98862976
0.99134841
0.99339471
0.99494363
0.99612096
0.99701863
0.99770473
0.99823013
0.99863312
0.99894263
0.99918066
0.99936395
0.99950527
0.99961437
0.99969872
0.99976404
0.9998147
0.99985408
0.99988473
0.99990866
0.99992737
0.99994204
0.99995358
0.99996268
0.99996987
0.99997557
0.99998011
0.99998373
0.99998663
0.99998897
0.99999085
0.99999237
0.99999361
0.99999462
0.99999545
0.99999613
0.99999669
0.99999715
0.99999754
0.99999786
0.99999814
0.99999836
0.99999856
0.99999872
0.99999886
0.99999898
0.99999908
0.99999916
0.99999924
0.99999931
0.99999936
0.99999941
0.99999945
0.99999949
0.99999952
0.99999955
0.99999958
0.9999996
0.99999962
0.99999964
0.99999965
0.99999967
0.99999968
0.99999969
0.9999997
0.99999971
0.99999971
0.99999972
0.99999972
0.99999973
0.99999973
0.99999974
0.99999974
0.99999974
0.99999974
0.99999974
0.99999974
0.99999975
0.99999975
0.99999975
0.99999975
0.99999974
0.99999974
0.99999974
0.99999973
0.99999972
0.99999971
0.9999997
0.99999969
0.99999968
0.99999967
0.99999965
0.99999964
0.99999962
0.99999961
0.99999959
0.99999957
0.99999955
0.99999953
0.99999951
0.99999949
0.99999947
0.99999945
0.99999943
0.99999941
0.99999939
0.99999936
0.99999934
0.99999932
0.9999993
0.99999927
0.99999925
0.99999923
0.99999921
0.99999918
0.99999916
0.99999914
0.99999912
0.9999991
0.99999908
0.99999906
0.99999904
0.99999902
0.99999901
0.99999899
0.99999897
0.99999895
0.99999894
0.99999892
0.99999891
0.99999889
0.99999888
0.99999887
0.99999886
0.99999884
0.99999883
0.99999882
0.99999881
0.9999988
0.99999879
0.99999878
0.99999878
0.99999877
0.99999876
0.99999876
0.99999875
0.99999874
0.99999874
0.99999873
0.99999873
0.99999872
0.99999872
0.99999871
0.99999871
0.99999871
0.9999987
0.9999987
0.9999987
0.9999987
0.99999869
0.99999869
0.99999869
0.99999869
0.99999869
0.99999869
0.99999868
0.99999868
0.99999868
0.99999868
0.99999868
0.99999868
0.99999868
0.99999868
0.99999868
0.99999868
0.99999868
0.99999867
0.99999867
0.99999867
0.99999867
0.99999867
0.99999867
0.99999867
0.99999867
0.99999867
0.99999867
0.99999867
0.99999867
0.99999867
0.99999867
1.1086523e-05
0.0017552975
0.32797044
0.56528123
0.70174168
0.78729755
0.84431491
0.88399744
0.91248159
0.93338332
0.94896593
0.96071705
0.96965326
0.97649088
0.98174682
0.98580094
0.98893633
0.99136623
0.99325254
0.99471895
0.99586034
0.9967498
0.99744372
0.99798573
0.99840961
0.99874154
0.99900184
0.9992063
0.99936716
0.99949397
0.99959412
0.99967339
0.99973629
0.99978631
0.9998262
0.99985809
0.99988367
0.99990423
0.99992083
0.99993426
0.99994516
0.99995405
0.99996131
0.99996727
0.99997218
0.99997623
0.9999796
0.9999824
0.99998474
0.9999867
0.99998835
0.99998974
0.99999092
0.99999193
0.99999278
0.99999352
0.99999415
0.99999469
0.99999516
0.99999557
0.99999593
0.99999624
0.99999651
0.99999674
0.99999695
0.99999713
0.99999729
0.99999744
0.99999756
0.99999767
0.99999777
0.99999786
0.99999793
0.999998
0.99999806
0.99999811
0.99999816
0.9999982
0.99999823
0.99999827
0.99999829
0.99999831
0.99999833
0.99999835
0.99999836
0.99999837
0.99999838
0.99999838
0.99999839
0.99999839
0.99999839
0.99999838
0.99999837
0.99999836
0.99999833
0.99999831
0.99999827
0.99999824
0.99999819
0.99999815
0.9999981
0.99999805
0.99999799
0.99999793
0.99999787
0.9999978
0.99999773
0.99999766
0.99999759
0.99999752
0.99999744
0.99999736
0.99999729
0.99999721
0.99999713
0.99999705
0.99999697
0.99999689
0.9999968
0.99999672
0.99999665
0.99999657
0.99999649
0.99999641
0.99999633
0.99999626
0.99999619
0.99999611
0.99999604
0.99999598
0.99999591
0.99999584
0.99999578
0.99999572
0.99999566
0.9999956
0.99999555
0.99999549
0.99999544
0.99999539
0.99999535
0.9999953
0.99999526
0.99999522
0.99999518
0.99999514
0.99999511
0.99999507
0.99999504
0.99999501
0.99999498
0.99999496
0.99999493
0.99999491
0.99999489
0.99999487
0.99999485
0.99999483
0.99999481
0.9999948
0.99999478
0.99999477
0.99999475
0.99999474
0.99999473
0.99999472
0.99999471
0.9999947
0.9999947
0.99999469
0.99999468
0.99999468
0.99999467
0.99999467
0.99999466
0.99999466
0.99999465
0.99999465
0.99999465
0.99999464
0.99999464
0.99999464
0.99999464
0.99999464
0.99999463
0.99999463
0.99999463
0.99999463
0.99999463
0.99999462
0.99999462
0.99999462
0.99999462
0.99999462
0.99999461
0.99999461
0.99999461
0.99999461
0.99999461
0.9999946
2.957935e-07
3.5317981e-06
0.00064010661
0.10320662
0.30599213
0.47014624
0.5944615
0.6877959
0.75825044
0.81187769
0.85302297
0.88480499
0.90948787
0.92873894
0.94380304
0.95562076
0.96490994
0.97222281
0.97798694
0.98253497
0.98612668
0.9889655
0.99121107
0.99298888
0.99439761
0.99551501
0.99640229
0.99710771
0.9976693
0.99811706
0.99847465
0.99876075
0.99899009
0.99917433
0.99932266
0.99944236
0.99953921
0.99961778
0.99968168
0.99973382
0.99977648
0.99981149
0.99984031
0.99986411
0.99988384
0.99990024
0.99991392
0.99992538
0.99993499
0.9999431
0.99994995
0.99995577
0.99996072
0.99996495
0.99996857
0.99997169
0.99997437
0.99997669
0.99997871
0.99998046
0.99998199
0.99998332
0.99998449
0.99998552
0.99998643
0.99998722
0.99998793
0.99998855
0.9999891
0.99998959
0.99999002
0.9999904
0.99999074
0.99999104
0.99999131
0.99999154
0.99999175
0.99999193
0.99999209
0.99999223
0.99999235
0.99999245
0.99999254
0.99999261
0.99999267
0.99999272
0.99999275
0.99999278
0.9999928
0.99999281
0.99999281
0.99999281
0.99999278
0.99999274
0.99999267
0.99999259
0.99999249
0.99999238
0.99999225
0.9999921
0.99999195
0.99999178
0.99999161
0.99999142
0.99999123
0.99999103
0.99999082
0.9999906
0.99999038
0.99999015
0.99998992
0.99998969
0.99998946
0.99998922
0.99998898
0.99998874
0.9999885
0.99998826
0.99998802
0.99998778
0.99998755
0.99998731
0.99998709
0.99998686
0.99998664
0.99998642
0.99998621
0.999986
0.99998579
0.99998559
0.9999854
0.99998521
0.99998503
0.99998486
0.99998469
0.99998452
0.99998437
0.99998421
0.99998407
0.99998393
0.9999838
0.99998367
0.99998355
0.99998343
0.99998332
0.99998321
0.99998311
0.99998302
0.99998293
0.99998285
0.99998277
0.99998269
0.99998262
0.99998256
0.99998249
0.99998244
0.99998238
0.99998233
0.99998228
0.99998224
0.9999822
0.99998216
0.99998213
0.99998209
0.99998206
0.99998204
0.99998201
0.99998199
0.99998197
0.99998195
0.99998193
0.99998191
0.9999819
0.99998188
0.99998187
0.99998186
0.99998185
0.99998184
0.99998183
0.99998183
0.99998182
0.99998181
0.99998181
0.9999818
0.9999818
0.99998179
0.99998179
0.99998178
0.99998178
0.99998177
0.99998177
0.99998176
0.99998176
0.99998176
0.99998175
0.99998175
0.99998174
0.99998174
0.99998173
0.99998173
4.4742673e-09
3.0665814e-08
1.0757067e-06
0.0001435156
0.0023789137
0.11053657
0.25618406
0.39139161
0.50697895
0.60249338
0.68021645
0.74300423
0.79354988
0.83417196
0.86679237
0.89297701
0.9139915
0.93085494
0.94438664
0.9552448
0.96395805
0.97095084
0.97656397
0.98107092
0.98469115
0.98760063
0.98994045
0.99182367
0.99334085
0.9945645
0.99555266
0.9963518
0.99699911
0.99752434
0.99795133
0.99829917
0.99858314
0.99881551
0.99900612
0.99916287
0.99929213
0.999399
0.99948762
0.99956132
0.9996228
0.99967423
0.99971739
0.99975373
0.99978443
0.99981043
0.99983252
0.99985136
0.99986747
0.99988129
0.99989318
0.99990345
0.99991233
0.99992004
0.99992675
0.9999326
0.99993772
0.99994221
0.99994616
0.99994963
0.99995269
0.9999554
0.9999578
0.99995992
0.9999618
0.99996347
0.99996496
0.99996628
0.99996745
0.99996848
0.99996941
0.99997022
0.99997094
0.99997157
0.99997213
0.99997261
0.99997303
0.9999734
0.99997371
0.99997397
0.99997419
0.99997436
0.9999745
0.99997461
0.99997468
0.99997473
0.99997475
0.99997474
0.9999747
0.9999746
0.99997444
0.99997423
0.99997398
0.99997368
0.99997335
0.99997298
0.99997257
0.99997213
0.99997167
0.99997118
0.99997067
0.99997014
0.99996959
0.99996902
0.99996844
0.99996785
0.99996725
0.99996664
0.99996603
0.99996541
0.99996479
0.99996417
0.99996355
0.99996293
0.99996232
0.99996171
0.99996111
0.99996051
0.99995993
0.99995935
0.99995879
0.99995823
0.99995769
0.99995716
0.99995665
0.99995615
0.99995566
0.99995519
0.99995473
0.99995429
0.99995386
0.99995345
0.99995306
0.99995268
0.99995232
0.99995197
0.99995164
0.99995132
0.99995102
0.99995073
0.99995045
0.99995019
0.99994994
0.99994971
0.99994949
0.99994928
0.99994908
0.9999489
0.99994873
0.99994856
0.99994841
0.99994827
0.99994813
0.99994801
0.99994789
0.99994778
0.99994768
0.99994759
0.9999475
0.99994742
0.99994735
0.99994728
0.99994722
0.99994716
0.99994711
0.99994706
0.99994702
0.99994698
0.99994695
0.99994691
0.99994689
0.99994686
0.99994684
0.99994681
0.9999468
0.99994678
0.99994676
0.99994675
0.99994674
0.99994673
0.99994672
0.99994671
0.9999467
0.99994669
0.99994668
0.99994667
0.99994666
0.99994665
0.99994664
0.99994663
0.99994662
0.99994662
0.99994661
0.9999466
0.99994659
0.99994658
3.5746657e-11
1.8444982e-10
1.5967152e-09
1.9613106e-07
3.4124493e-06
0.00018228573
0.033761742
0.12525079
0.23577957
0.34692496
0.44971705
0.54063242
0.61896629
0.68536113
0.74102859
0.78735211
0.82569196
0.85729676
0.88327002
0.90456477
0.92199165
0.93623293
0.94785844
0.95734128
0.96507246
0.9713739
0.97650988
0.98069676
0.98411132
0.98689772
0.98917335
0.99103369
0.99255633
0.99380426
0.9948286
0.99567084
0.99636461
0.99693723
0.99741085
0.99780347
0.99812971
0.99840147
0.99862841
0.99881844
0.99897799
0.99911232
0.99922574
0.99932178
0.99940334
0.9994728
0.99953214
0.99958297
0.99962664
0.99966427
0.99969678
0.99972495
0.99974943
0.99977075
0.99978937
0.99980567
0.99981997
0.99983255
0.99984363
0.99985341
0.99986207
0.99986973
0.99987653
0.99988257
0.99988794
0.99989271
0.99989696
0.99990074
0.9999041
0.99990709
0.99990974
0.9999121
0.99991418
0.99991602
0.99991764
0.99991906
0.9999203
0.99992137
0.99992228
0.99992306
0.99992372
0.99992425
0.99992468
0.99992501
0.99992526
0.99992542
0.9999255
0.99992551
0.99992547
0.99992527
0.99992494
0.99992449
0.99992392
0.99992324
0.99992247
0.99992161
0.99992067
0.99991966
0.99991858
0.99991745
0.99991626
0.99991502
0.99991374
0.99991242
0.99991108
0.99990971
0.99990832
0.99990691
0.99990549
0.99990406
0.99990263
0.9999012
0.99989978
0.99989836
0.99989696
0.99989557
0.99989419
0.99989283
0.9998915
0.99989019
0.99988891
0.99988765
0.99988642
0.99988523
0.99988406
0.99988293
0.99988183
0.99988077
0.99987974
0.99987875
0.99987779
0.99987687
0.99987598
0.99987513
0.99987431
0.99987353
0.99987279
0.99987208
0.9998714
0.99987076
0.99987014
0.99986956
0.99986901
0.99986849
0.999868
0.99986753
0.99986709
0.99986668
0.9998663
0.99986593
0.99986559
0.99986528
0.99986498
0.9998647
0.99986444
0.99986421
0.99986398
0.99986378
0.99986359
0.99986341
0.99986325
0.9998631
0.99986297
0.99986284
0.99986273
0.99986262
0.99986253
0.99986244
0.99986237
0.9998623
0.99986224
0.99986218
0.99986213
0.99986208
0.99986205
0.99986201
0.99986198
0.99986195
0.99986193
0.99986191
0.99986189
0.99986187
0.99986185
0.99986183
0.99986181
0.99986179
0.99986178
0.99986176
0.99986175
0.99986173
0.99986172
0.9998617
0.99986169
0.99986167
0.99986166
0.99986164
4.2688968e-13
2.5020877e-12
2.0029744e-11
2.4264724e-10
4.8917786e-09
3.0234351e-07
4.8277597e-05
0.0045728474
0.049878685
0.12751704
0.22002232
0.31616582
0.40892675
0.49446709
0.57105258
0.63823989
0.69632863
0.74601114
0.78815649
0.82368148
0.85347686
0.87836812
0.89909733
0.91631774
0.93059575
0.94241687
0.95219356
0.96027381
0.9669495
0.97246437
0.97702115
0.98078796
0.98390386
0.98648364
0.98862188
0.99039644
0.99187133
0.99309915
0.99412311
0.99497871
0.99569509
0.99629621
0.99680176
0.99722794
0.99758809
0.99789322
0.9981524
0.99837312
0.99856159
0.99872296
0.99886149
0.99898075
0.99908368
0.99917276
0.99925006
0.9993173
0.99937594
0.99942721
0.99947213
0.99951159
0.99954633
0.99957696
0.99960403
0.999628
0.99964924
0.99966811
0.99968489
0.99969981
0.99971311
0.99972496
0.99973553
0.99974495
0.99975335
0.99976083
0.99976749
0.9997734
0.99977865
0.99978329
0.99978739
0.99979098
0.99979413
0.99979686
0.99979921
0.99980121
0.9998029
0.99980431
0.99980544
0.99980633
0.999807
0.99980746
0.99980773
0.99980783
0.99980779
0.99980747
0.99980685
0.99980595
0.9998048
0.99980341
0.99980182
0.99980003
0.99979806
0.99979594
0.99979368
0.99979129
0.99978878
0.99978618
0.99978348
0.99978072
0.99977789
0.99977501
0.99977208
0.99976913
0.99976616
0.99976317
0.99976018
0.99975719
0.99975422
0.99975126
0.99974834
0.99974544
0.99974258
0.99973976
0.999737
0.99973428
0.99973162
0.99972902
0.99972648
0.99972401
0.99972161
0.99971928
0.99971701
0.99971482
0.99971271
0.99971067
0.9997087
0.99970681
0.99970499
0.99970325
0.99970158
0.99969998
0.99969846
0.999697
0.99969562
0.9996943
0.99969305
0.99969187
0.99969074
0.99968968
0.99968868
0.99968773
0.99968684
0.999686
0.99968521
0.99968448
0.99968379
0.99968314
0.99968254
0.99968198
0.99968146
0.99968097
0.99968052
0.99968011
0.99967972
0.99967937
0.99967904
0.99967874
0.99967847
0.99967822
0.99967799
0.99967778
0.99967759
0.99967742
0.99967727
0.99967713
0.99967701
0.9996769
0.9996768
0.99967671
0.99967664
0.99967657
0.99967651
0.99967646
0.99967642
0.99967638
0.99967634
0.9996763
0.99967627
0.99967624
0.99967621
0.99967618
0.99967615
0.99967613
0.9996761
0.99967608
0.99967605
0.99967603
0.99967601
0.99967598
0.99967596
0.99967593
3.3211219e-15
1.5495566e-14
9.8660729e-14
6.9622876e-13
6.5225249e-12
4.8881689e-10
7.045729e-08
5.889386e-06
8.3988172e-05
0.016819358
0.063274613
0.1309375
0.21108213
0.29610687
0.38045836
0.46052357
0.53421725
0.60055019
0.65927027
0.71059194
0.75500328
0.79313385
0.82566746
0.85328679
0.87664023
0.89632367
0.91287224
0.92675836
0.93839371
0.94813342
0.95628136
0.96309589
0.96879548
0.97356412
0.9775562
0.98090092
0.98370615
0.98606182
0.98804274
0.98971117
0.99111883
0.99230866
0.99331638
0.99417164
0.99489908
0.9955192
0.99604908
0.99650291
0.99689257
0.99722793
0.99751729
0.99776758
0.9979846
0.99817324
0.9983376
0.99848116
0.99860684
0.99871711
0.99881408
0.99889952
0.99897497
0.99904171
0.99910085
0.99915334
0.99920001
0.99924154
0.99927855
0.99931157
0.99934103
0.99936735
0.99939086
0.99941185
0.99943061
0.99944734
0.99946226
0.99947555
0.99948735
0.99949781
0.99950706
0.9995152
0.99952233
0.99952854
0.99953391
0.99953851
0.99954241
0.99954566
0.99954831
0.99955042
0.99955203
0.99955318
0.9995539
0.99955424
0.99955422
0.99955377
0.99955269
0.99955106
0.99954892
0.9995463
0.99954326
0.99953984
0.99953606
0.99953197
0.99952759
0.99952296
0.99951811
0.99951306
0.99950785
0.99950249
0.99949701
0.99949143
0.99948577
0.99948006
0.99947431
0.99946854
0.99946277
0.99945701
0.99945128
0.99944559
0.99943996
0.99943439
0.9994289
0.99942349
0.99941819
0.99941298
0.99940789
0.99940292
0.99939807
0.99939335
0.99938877
0.99938431
0.99938
0.99937583
0.99937181
0.99936792
0.99936419
0.99936059
0.99935714
0.99935383
0.99935066
0.99934764
0.99934475
0.99934199
0.99933937
0.99933688
0.99933451
0.99933227
0.99933014
0.99932814
0.99932624
0.99932446
0.99932277
0.99932119
0.99931971
0.99931832
0.99931702
0.99931581
0.99931467
0.99931362
0.99931264
0.99931173
0.99931088
0.9993101
0.99930938
0.99930872
0.99930811
0.99930755
0.99930704
0.99930657
0.99930614
0.99930576
0.99930541
0.99930509
0.99930481
0.99930455
0.99930432
0.99930412
0.99930394
0.99930379
0.99930365
0.99930353
0.99930343
0.99930334
0.99930326
0.99930319
0.99930313
0.99930307
0.99930301
0.99930296
0.99930292
0.99930287
0.99930283
0.99930279
0.99930276
0.99930272
0.99930269
0.99930265
0.99930262
0.99930259
0.99930255
0.99930252
2.7913346e-17
1.2957194e-16
8.5193329e-16
5.875854e-15
4.7923593e-14
7.2023159e-13
1.0136412e-10
7.7591463e-09
1.4089252e-07
2.5528383e-05
0.004289755
0.028599187
0.073355101
0.1345126
0.20630464
0.28322314
0.36082478
0.43589798
0.50634149
0.57094443
0.62915843
0.6808994
0.72638924
0.76603668
0.80035112
0.82988293
0.85518369
0.87678118
0.89516476
0.9107781
0.9240167
0.93522861
0.94471699
0.9527438
0.95953392
0.96527938
0.97014347
0.97426457
0.97775962
0.98072724
0.98325045
0.98539905
0.98723171
0.98879766
0.99013826
0.99128821
0.99227667
0.99312812
0.99386317
0.99449912
0.99505058
0.99552986
0.99594735
0.99631182
0.99663073
0.99691038
0.99715612
0.99737252
0.99756347
0.99773228
0.99788179
0.99801445
0.99813233
0.99823724
0.99833073
0.99841415
0.99848865
0.99855525
0.99861481
0.99866812
0.99871582
0.99875851
0.9987967
0.99883084
0.99886133
0.99888852
0.99891272
0.99893422
0.99895325
0.99897003
0.99898476
0.99899763
0.99900879
0.99901837
0.99902652
0.99903336
0.99903898
0.99904349
0.99904697
0.99904952
0.9990512
0.9990521
0.99905227
0.99905171
0.99905
0.99904723
0.9990435
0.99903889
0.99903349
0.99902736
0.99902058
0.99901321
0.99900532
0.99899697
0.9989882
0.99897908
0.99896965
0.99895995
0.99895005
0.99893996
0.99892975
0.99891943
0.99890906
0.99889865
0.99888825
0.99887787
0.99886755
0.99885732
0.99884719
0.99883719
0.99882733