/*--------------------------------*- C++ -*----------------------------------*\
| =========                 |                                                 |
| \\      /  F ield         | OpenFOAM: The Open Source CFD Toolbox           |
|  \\    /   O peration     | Version:  2406                                  |
|   \\  /    A nd           | Website:  www.openfoam.com                      |
|    \\/     M anipulation  |                                                 |
\*---------------------------------------------------------------------------*/
FoamFile
{
    version     2.0;
    format      ascii;
    arch        "LSB;label=32;scalar=64";
    class       volVectorField;
    location    "1470";
    object      U;
}
// * * * * * * * * * * * * * * * * * * * * * * * * * * * * * * * * * * * * * //

dimensions      [0 1 -1 0 0 0 0];

internalField   nonuniform List<vector> 
9800
(
(-0.00010051281 9.9569721e-05 0)
(-0.00034195266 7.8020849e-05 0)
(-0.00040682839 2.0680111e-05 0)
(-0.00030147693 -2.3874863e-05 0)
(-8.6396575e-05 -4.6621222e-05 0)
(0.00016806145 -5.2743413e-05 0)
(0.00041468103 -4.9011284e-05 0)
(0.00062905433 -4.0865258e-05 0)
(0.00080226981 -3.1673232e-05 0)
(0.00093429185 -2.3140413e-05 0)
(0.0010293432 -1.5940666e-05 0)
(0.0010931798 -1.0196603e-05 0)
(0.0011316601 -5.7789536e-06 0)
(0.0011500921 -2.471314e-06 0)
(0.001153006 -5.0087202e-08 0)
(0.0011441359 1.683589e-06 0)
(0.0011264938 2.8935269e-06 0)
(0.0011024758 3.7090722e-06 0)
(0.0010739703 4.2302964e-06 0)
(0.0010424536 4.5336465e-06 0)
(0.0010090716 4.6771219e-06 0)
(0.000974707 4.7045417e-06 0)
(0.00094003346 4.6489109e-06 0)
(0.00090555971 4.5350204e-06 0)
(0.00087166448 4.3814319e-06 0)
(0.00083862439 4.2019862e-06 0)
(0.00080663626 4.0069468e-06 0)
(0.00077583473 3.8038679e-06 0)
(0.00074630625 3.598254e-06 0)
(0.00071810022 3.3940612e-06 0)
(0.00069123771 3.1940787e-06 0)
(0.00066571839 3.0002195e-06 0)
(0.00064152593 2.8137419e-06 0)
(0.00061863231 2.6354175e-06 0)
(0.0005970011 2.4656598e-06 0)
(0.00057659004 2.304621e-06 0)
(0.00055735309 2.1522654e-06 0)
(0.0005392419 2.0084254e-06 0)
(0.00052220704 1.8728425e-06 0)
(0.00050619886 1.7451989e-06 0)
(0.00049116815 1.6251405e-06 0)
(0.00047706661 1.5122937e-06 0)
(0.00046384723 1.406278e-06 0)
(0.00045146451 1.3067147e-06 0)
(0.00043987464 1.213233e-06 0)
(0.00042903554 1.1254744e-06 0)
(0.00041890698 1.0430954e-06 0)
(0.00040945054 9.6576905e-07 0)
(0.00040062964 8.931857e-07 0)
(0.00039240945 8.2505352e-07 0)
(0.00038475688 7.6109819e-07 0)
(0.00037764053 7.0106243e-07 0)
(0.00037103058 6.4470547e-07 0)
(0.00036489879 5.9180219e-07 0)
(0.00035921835 5.4214238e-07 0)
(0.00035396387 4.9552986e-07 0)
(0.00034911129 4.5178159e-07 0)
(0.00034463782 4.1072684e-07 0)
(0.00034052183 3.7220641e-07 0)
(0.00033674287 3.3607175e-07 0)
(0.00033328153 3.0218431e-07 0)
(0.00033011941 2.7041475e-07 0)
(0.00032723907 2.4064233e-07 0)
(0.00032462399 2.1275426e-07 0)
(0.00032225847 1.8664514e-07 0)
(0.00032012763 1.6221638e-07 0)
(0.00031821735 1.3937576e-07 0)
(0.00031651423 1.1803686e-07 0)
(0.00031500555 9.8118741e-08 0)
(0.00031367921 7.9545447e-08 0)
(0.00031252374 6.2245696e-08 0)
(0.00031152823 4.6152445e-08 0)
(0.00031068232 3.1202682e-08 0)
(0.00030997616 1.7336997e-08 0)
(0.00030940038 4.4994256e-09 0)
(0.00030894607 -7.3629458e-09 0)
(0.00030860479 -1.8300065e-08 0)
(0.00030836847 -2.8359296e-08 0)
(0.00030822947 -3.7585477e-08 0)
(0.00030818051 -4.6021267e-08 0)
(0.00030821468 -5.3707147e-08 0)
(0.0003083254 -6.0681683e-08 0)
(0.00030850644 -6.6981682e-08 0)
(0.00030875186 -7.2642396e-08 0)
(0.00030905602 -7.7697377e-08 0)
(0.00030941359 -8.2178868e-08 0)
(0.0003098195 -8.6117732e-08 0)
(0.00031026893 -8.9543714e-08 0)
(0.00031075735 -9.248528e-08 0)
(0.00031128044 -9.4969923e-08 0)
(0.00031183413 -9.7024015e-08 0)
(0.00031241458 -9.8673086e-08 0)
(0.00031301816 -9.9941619e-08 0)
(0.00031364145 -1.0085335e-07 0)
(0.00031428123 -1.0143107e-07 0)
(0.00031493448 -1.0169689e-07 0)
(0.00031559838 -1.01672e-07 0)
(0.00031627026 -1.0137699e-07 0)
(0.00031694766 -1.0083157e-07 0)
(0.00031762826 -1.0005487e-07 0)
(0.00031830991 -9.9065184e-08 0)
(0.00031899062 -9.7880222e-08 0)
(0.00031966856 -9.6516907e-08 0)
(0.00032034202 -9.4991608e-08 0)
(0.00032100944 -9.3319893e-08 0)
(0.00032166939 -9.1516788e-08 0)
(0.00032232059 -8.9596554e-08 0)
(0.00032296184 -8.7572918e-08 0)
(0.00032359208 -8.5458853e-08 0)
(0.00032421037 -8.3266794e-08 0)
(0.00032481585 -8.1008468e-08 0)
(0.00032540778 -7.8695066e-08 0)
(0.00032598551 -7.6337093e-08 0)
(0.00032654847 -7.3944518e-08 0)
(0.00032709619 -7.1526671e-08 0)
(0.00032762828 -6.9092349e-08 0)
(0.00032814442 -6.6649747e-08 0)
(0.00032864436 -6.4206535e-08 0)
(0.00032912791 -6.1769829e-08 0)
(0.00032959497 -5.934622e-08 0)
(0.00033004546 -5.6941806e-08 0)
(0.00033047938 -5.4562169e-08 0)
(0.00033089679 -5.2212446e-08 0)
(0.00033129776 -4.9897258e-08 0)
(0.00033168242 -4.7620864e-08 0)
(0.00033205096 -4.5387013e-08 0)
(0.00033240358 -4.319914e-08 0)
(0.00033274051 -4.1060163e-08 0)
(0.00033306203 -3.8972784e-08 0)
(0.00033336843 -3.6939203e-08 0)
(0.00033366002 -3.4961436e-08 0)
(0.00033393715 -3.3040982e-08 0)
(0.00033420017 -3.117928e-08 0)
(0.00033444945 -2.937726e-08 0)
(0.00033468537 -2.7635809e-08 0)
(0.00033490833 -2.5955295e-08 0)
(0.00033511873 -2.433617e-08 0)
(0.00033531697 -2.2778379e-08 0)
(0.00033550348 -2.1281946e-08 0)
(0.00033567867 -1.9846374e-08 0)
(0.00033584296 -1.8471379e-08 0)
(0.00033599677 -1.7156169e-08 0)
(0.00033614051 -1.5900146e-08 0)
(0.00033627461 -1.4702201e-08 0)
(0.00033639947 -1.3561534e-08 0)
(0.00033651549 -1.2476857e-08 0)
(0.00033662309 -1.1447161e-08 0)
(0.00033672265 -1.0470937e-08 0)
(0.00033681456 -9.5470643e-09 0)
(0.0003368992 -8.6739466e-09 0)
(0.00033697695 -7.8503157e-09 0)
(0.00033704815 -7.0744258e-09 0)
(0.00033711318 -6.3449595e-09 0)
(0.00033717236 -5.6601543e-09 0)
(0.00033722603 -5.0186078e-09 0)
(0.00033727451 -4.418492e-09 0)
(0.00033731812 -3.8584043e-09 0)
(0.00033735715 -3.3365639e-09 0)
(0.00033739188 -2.8515386e-09 0)
(0.00033742261 -2.4015505e-09 0)
(0.00033744959 -1.985198e-09 0)
(0.00033747308 -1.6007838e-09 0)
(0.00033749332 -1.2469055e-09 0)
(0.00033751055 -9.2190866e-10 0)
(0.00033752499 -6.2443574e-10 0)
(0.00033753686 -3.5293301e-10 0)
(0.00033754635 -1.0606881e-10 0)
(0.00033755365 1.1762142e-10 0)
(0.00033755895 3.1941877e-10 0)
(0.00033756242 5.0067386e-10 0)
(0.00033756422 6.6261713e-10 0)
(0.0003375645 8.0646964e-10 0)
(0.00033756341 9.3341421e-10 0)
(0.00033756108 1.04456e-09 0)
(0.00033755764 1.1410199e-09 0)
(0.00033755321 1.2237525e-09 0)
(0.0003375479 1.2938279e-09 0)
(0.0003375418 1.3521081e-09 0)
(0.00033753503 1.3995859e-09 0)
(0.00033752766 1.4369798e-09 0)
(0.00033751978 1.4652581e-09 0)
(0.00033751147 1.485087e-09 0)
(0.00033750279 1.497385e-09 0)
(0.00033749382 1.5027418e-09 0)
(0.0003374846 1.5021371e-09 0)
(0.00033747519 1.4962657e-09 0)
(0.00033746564 1.4862775e-09 0)
(0.00033745598 1.4731893e-09 0)
(0.00033744623 1.458849e-09 0)
(0.00033743642 1.4454834e-09 0)
(0.00033742654 1.4370135e-09 0)
(0.00033741658 1.4393417e-09 0)
(0.00033740646 1.4630072e-09 0)
(0.0003373961 1.5256987e-09 0)
(0.0003373853 1.6607052e-09 0)
(0.00033737375 1.9291831e-09 0)
(0.00033736106 2.4095719e-09 0)
(0.00033734643 3.1668973e-09 0)
(0.00033732637 4.9568719e-09 0)
(0.00033729997 9.7973365e-09 0)
(-0.00013338108 0.0004215459 0)
(-0.00042108656 0.00029660543 0)
(-0.00028965057 -6.9451388e-05 0)
(0.00012777865 -0.00034648189 0)
(0.00068526482 -0.00048179813 0)
(0.0012666395 -0.00050581778 0)
(0.0018017597 -0.00046273965 0)
(0.0022570711 -0.00038855807 0)
(0.0026224856 -0.00030625544 0)
(0.0029008139 -0.00022821307 0)
(0.0031010253 -0.00015994687 0)
(0.0032343596 -0.00010306094 0)
(0.0033122243 -5.7171098e-05 0)
(0.0033451634 -2.1032471e-05 0)
(0.0033424368 6.8569898e-06 0)
(0.0033119233 2.796743e-05 0)
(0.0032601882 4.3607522e-05 0)
(0.0031926243 5.4886804e-05 0)
(0.0031136121 6.2721776e-05 0)
(0.0030266769 6.7857818e-05 0)
(0.0029346308 7.0895277e-05 0)
(0.0028396978 7.2314558e-05 0)
(0.0027436201 7.2498266e-05 0)
(0.002647748 7.1749922e-05 0)
(0.0025531145 7.0309427e-05 0)
(0.0024604968 6.8365688e-05 0)
(0.0023704675 6.606683e-05 0)
(0.0022834356 6.3528446e-05 0)
(0.0021996807 6.0840222e-05 0)
(0.0021193804 5.8071267e-05 0)
(0.0020426325 5.527438e-05 0)
(0.0019694727 5.2489462e-05 0)
(0.0018998894 4.9746256e-05 0)
(0.0018338349 4.7066518e-05 0)
(0.0017712346 4.446576e-05 0)
(0.0017119943 4.1954629e-05 0)
(0.0016560062 3.9540004e-05 0)
(0.0016031529 3.7225864e-05 0)
(0.0015533117 3.5013977e-05 0)
(0.0015063564 3.2904436e-05 0)
(0.0014621604 3.0896091e-05 0)
(0.0014205973 2.8986877e-05 0)
(0.0013815431 2.7174076e-05 0)
(0.0013448764 2.5454519e-05 0)
(0.0013104792 2.3824745e-05 0)
(0.0012782373 2.2281113e-05 0)
(0.001248041 2.0819902e-05 0)
(0.0012197846 1.9437377e-05 0)
(0.001193367 1.8129835e-05 0)
(0.0011686914 1.6893652e-05 0)
(0.0011456654 1.5725302e-05 0)
(0.0011242011 1.4621378e-05 0)
(0.0011042144 1.3578605e-05 0)
(0.0010856255 1.2593847e-05 0)
(0.0010683585 1.1664108e-05 0)
(0.0010523411 1.0786538e-05 0)
(0.0010375046 9.9584252e-06 0)
(0.0010237838 9.1771967e-06 0)
(0.0010111168 8.4404142e-06 0)
(0.00099944469 7.7457691e-06 0)
(0.00098871152 7.0910766e-06 0)
(0.00097886421 6.4742711e-06 0)
(0.00096985231 5.8933997e-06 0)
(0.0009616279 5.3466171e-06 0)
(0.00095414542 4.8321795e-06 0)
(0.00094736163 4.3484392e-06 0)
(0.0009412354 3.8938394e-06 0)
(0.00093572766 3.4669086e-06 0)
(0.00093080125 3.0662555e-06 0)
(0.00092642086 2.6905647e-06 0)
(0.0009225529 2.3385914e-06 0)
(0.00091916542 2.0091575e-06 0)
(0.00091622804 1.7011471e-06 0)
(0.00091371187 1.4135025e-06 0)
(0.0009115894 1.1452207e-06 0)
(0.00090983447 8.9534967e-07 0)
(0.00090842221 6.6298487e-07 0)
(0.00090732892 4.4726627e-07 0)
(0.00090653207 2.4737538e-07 0)
(0.00090601025 6.2532372e-08 0)
(0.00090574305 -1.0800629e-07 0)
(0.0009057111 -2.6495072e-07 0)
(0.00090589596 -4.0897931e-07 0)
(0.00090628013 -5.4074124e-07 0)
(0.00090684695 -6.6085784e-07 0)
(0.00090758064 -7.6992485e-07 0)
(0.00090846618 -8.6851386e-07 0)
(0.00090948936 -9.5717391e-07 0)
(0.0009106367 -1.0364324e-06 0)
(0.00091189542 -1.1067968e-06 0)
(0.00091325345 -1.168755e-06 0)
(0.00091469935 -1.2227772e-06 0)
(0.00091622235 -1.2693161e-06 0)
(0.00091781227 -1.308808e-06 0)
(0.00091945953 -1.3416732e-06 0)
(0.00092115511 -1.3683171e-06 0)
(0.00092289055 -1.3891302e-06 0)
(0.00092465791 -1.404489e-06 0)
(0.00092644976 -1.414756e-06 0)
(0.00092825917 -1.4202806e-06 0)
(0.00093007965 -1.4213989e-06 0)
(0.00093190522 -1.4184343e-06 0)
(0.00093373027 -1.4116975e-06 0)
(0.00093554967 -1.4014874e-06 0)
(0.00093735866 -1.3880901e-06 0)
(0.00093915286 -1.3717804e-06 0)
(0.00094092829 -1.352821e-06 0)
(0.00094268129 -1.3314635e-06 0)
(0.00094440858 -1.3079477e-06 0)
(0.00094610715 -1.2825025e-06 0)
(0.00094777435 -1.2553457e-06 0)
(0.0009494078 -1.2266845e-06 0)
(0.00095100538 -1.1967153e-06 0)
(0.00095256528 -1.165624e-06 0)
(0.0009540859 -1.1335864e-06 0)
(0.00095556589 -1.1007685e-06 0)
(0.00095700414 -1.0673261e-06 0)
(0.00095839971 -1.0334057e-06 0)
(0.00095975191 -9.9914441e-07 0)
(0.00096106019 -9.6467035e-07 0)
(0.0009623242 -9.3010272e-07 0)
(0.00096354373 -8.9555223e-07 0)
(0.00096471874 -8.6112129e-07 0)
(0.00096584932 -8.2690429e-07 0)
(0.00096693567 -7.9298796e-07 0)
(0.00096797814 -7.5945153e-07 0)
(0.00096897717 -7.2636716e-07 0)
(0.0009699333 -6.9380006e-07 0)
(0.00097084715 -6.6180901e-07 0)
(0.00097171944 -6.3044641e-07 0)
(0.00097255093 -5.9975881e-07 0)
(0.00097334249 -5.6978693e-07 0)
(0.000974095 -5.4056631e-07 0)
(0.00097480942 -5.1212717e-07 0)
(0.00097548673 -4.8449516e-07 0)
(0.00097612797 -4.576911e-07 0)
(0.00097673419 -4.3173189e-07 0)
(0.00097730647 -4.0663011e-07 0)
(0.00097784591 -3.8239491e-07 0)
(0.00097835363 -3.5903162e-07 0)
(0.00097883074 -3.3654272e-07 0)
(0.00097927837 -3.1492732e-07 0)
(0.00097969765 -2.9418216e-07 0)
(0.00098008971 -2.7430099e-07 0)
(0.00098045566 -2.5527573e-07 0)
(0.00098079661 -2.3709575e-07 0)
(0.00098111366 -2.1974891e-07 0)
(0.00098140788 -2.0322089e-07 0)
(0.00098168034 -1.8749631e-07 0)
(0.00098193209 -1.7255796e-07 0)
(0.00098216415 -1.5838783e-07 0)
(0.00098237751 -1.4496636e-07 0)
(0.00098257316 -1.322736e-07 0)
(0.00098275204 -1.2028833e-07 0)
(0.00098291507 -1.0898913e-07 0)
(0.00098306315 -9.8353574e-08 0)
(0.00098319715 -8.8359353e-08 0)
(0.00098331791 -7.8983392e-08 0)
(0.00098342623 -7.0202856e-08 0)
(0.00098352289 -6.1994373e-08 0)
(0.00098360864 -5.4335009e-08 0)
(0.0009836842 -4.72015e-08 0)
(0.00098375026 -4.0571078e-08 0)
(0.00098380747 -3.4420836e-08 0)
(0.00098385647 -2.8728491e-08 0)
(0.00098389786 -2.347179e-08 0)
(0.00098393221 -1.8629134e-08 0)
(0.00098396006 -1.4179121e-08 0)
(0.00098398193 -1.0101047e-08 0)
(0.00098399831 -6.3745572e-09 0)
(0.00098400966 -2.979995e-09 0)
(0.00098401642 1.0180352e-10 0)
(0.000984019 2.8893498e-09 0)
(0.00098401778 5.4005379e-09 0)
(0.00098401314 7.6526373e-09 0)
(0.00098400542 9.6622014e-09 0)
(0.00098399493 1.144528e-08 0)
(0.00098398197 1.3017145e-08 0)
(0.00098396683 1.4392631e-08 0)
(0.00098394976 1.5585801e-08 0)
(0.00098393101 1.661051e-08 0)
(0.0009839108 1.7479967e-08 0)
(0.00098388933 1.820739e-08 0)
(0.0009838668 1.8805682e-08 0)
(0.00098384337 1.9288355e-08 0)
(0.0009838192 1.9669367e-08 0)
(0.00098379442 1.996436e-08 0)
(0.00098376914 2.0191151e-08 0)
(0.00098374346 2.0371878e-08 0)
(0.00098371743 2.053486e-08 0)
(0.00098369107 2.0718811e-08 0)
(0.00098366437 2.0978249e-08 0)
(0.00098363724 2.1393154e-08 0)
(0.00098360951 2.2082704e-08 0)
(0.00098358091 2.322679e-08 0)
(0.00098355102 2.5091343e-08 0)
(0.00098351944 2.8054584e-08 0)
(0.00098348541 3.2648418e-08 0)
(0.00098344501 3.948863e-08 0)
(0.00098339936 4.7316706e-08 0)
(-0.00012408111 0.00080525439 0)
(-2.2506616e-05 0.00026051171 0)
(0.00067799485 -0.0005524669 0)
(0.0015614724 -0.001045567 0)
(0.0024197258 -0.0012287021 0)
(0.0031829503 -0.0012046857 0)
(0.003826833 -0.0010672926 0)
(0.0043478312 -0.00088287743 0)
(0.0047531751 -0.00069115566 0)
(0.0050545042 -0.00051279553 0)
(0.0052648757 -0.00035678763 0)
(0.0053974255 -0.00022557326 0)
(0.0054646456 -0.00011822277 0)
(0.0054779837 -3.2284938e-05 0)
(0.005447652 3.5202908e-05 0)
(0.0053825656 8.7204483e-05 0)
(0.005290386 0.00012642612 0)
(0.0051776059 0.000155232 0)
(0.0050496594 0.00017563333 0)
(0.0049110444 0.00018931229 0)
(0.0047654454 0.00019765981 0)
(0.004615849 0.00020181648 0)
(0.0044646511 0.0002027115 0)
(0.0043137506 0.00020109779 0)
(0.0041646333 0.00019758229 0)
(0.0040184432 0.000192652 0)
(0.0038760437 0.00018669568 0)
(0.0037380695 0.00018002205 0)
(0.00360497 0.00017287484 0)
(0.0034770456 0.00016544519 0)
(0.0033544777 0.00015788185 0)
(0.0032373533 0.00015029947 0)
(0.0031256856 0.0001427854 0)
(0.0030194306 0.00013540523 0)
(0.0029185 0.00012820724 0)
(0.0028227729 0.00012122601 0)
(0.0027321039 0.00011448535 0)
(0.0026463305 0.00010800062 0)
(0.0025652785 0.00010178061 0)
(0.0024887667 9.5829048e-05 0)
(0.00241661 9.0145803e-05 0)
(0.0023486223 8.4727814e-05 0)
(0.0022846186 7.9569858e-05 0)
(0.0022244166 7.466514e-05 0)
(0.002167838 7.0005761e-05 0)
(0.0021147089 6.5583081e-05 0)
(0.0020648611 6.1388003e-05 0)
(0.0020181319 5.7411195e-05 0)
(0.0019743649 5.3643252e-05 0)
(0.0019334096 5.0074828e-05 0)
(0.001895122 4.6696725e-05 0)
(0.0018593638 4.3499968e-05 0)
(0.0018260034 4.0475849e-05 0)
(0.0017949145 3.7615964e-05 0)
(0.0017659771 3.4912233e-05 0)
(0.0017390766 3.2356911e-05 0)
(0.0017141036 2.9942598e-05 0)
(0.0016909543 2.7662232e-05 0)
(0.0016695294 2.550909e-05 0)
(0.0016497349 2.3476776e-05 0)
(0.0016314808 2.1559217e-05 0)
(0.0016146818 1.9750647e-05 0)
(0.0015992567 1.8045597e-05 0)
(0.0015851282 1.6438883e-05 0)
(0.0015722226 1.4925591e-05 0)
(0.00156047 1.3501065e-05 0)
(0.0015498037 1.2160895e-05 0)
(0.0015401605 1.09009e-05 0)
(0.0015314799 9.717123e-06 0)
(0.0015237046 8.6058096e-06 0)
(0.0015167799 7.563403e-06 0)
(0.0015106537 6.5865298e-06 0)
(0.0015052767 5.6719891e-06 0)
(0.0015006015 4.816743e-06 0)
(0.0014965834 4.0179056e-06 0)
(0.0014931796 3.2727343e-06 0)
(0.0014903494 2.5786203e-06 0)
(0.0014880541 1.9330806e-06 0)
(0.0014862568 1.3337494e-06 0)
(0.0014849224 7.783711e-07 0)
(0.0014840175 2.6479285e-07 0)
(0.0014835103 -2.090415e-07 0)
(0.0014833707 -6.4509869e-07 0)
(0.0014835698 -1.0452603e-06 0)
(0.0014840803 -1.4113289e-06 0)
(0.0014848763 -1.7450326e-06 0)
(0.0014859332 -2.0480303e-06 0)
(0.0014872274 -2.3219146e-06 0)
(0.0014887369 -2.5682166e-06 0)
(0.0014904407 -2.7884082e-06 0)
(0.0014923187 -2.9839058e-06 0)
(0.0014943522 -3.1560729e-06 0)
(0.0014965234 -3.3062232e-06 0)
(0.0014988154 -3.4356216e-06 0)
(0.0015012125 -3.5454875e-06 0)
(0.0015036996 -3.6369959e-06 0)
(0.0015062629 -3.7112791e-06 0)
(0.001508889 -3.7694278e-06 0)
(0.0015115658 -3.8124932e-06 0)
(0.0015142815 -3.8414871e-06 0)
(0.0015170255 -3.8573837e-06 0)
(0.0015197877 -3.8611196e-06 0)
(0.0015225588 -3.8535958e-06 0)
(0.0015253302 -3.835677e-06 0)
(0.0015280937 -3.8081936e-06 0)
(0.0015308422 -3.7719413e-06 0)
(0.0015335688 -3.7276822e-06 0)
(0.0015362674 -3.6761453e-06 0)
(0.0015389322 -3.618027e-06 0)
(0.0015415583 -3.5539914e-06 0)
(0.001544141 -3.4846714e-06 0)
(0.0015466761 -3.4106687e-06 0)
(0.0015491601 -3.3325546e-06 0)
(0.0015515897 -3.2508705e-06 0)
(0.0015539619 -3.1661289e-06 0)
(0.0015562745 -3.0788131e-06 0)
(0.0015585254 -2.9893789e-06 0)
(0.0015607127 -2.8982544e-06 0)
(0.0015628351 -2.8058414e-06 0)
(0.0015648915 -2.7125155e-06 0)
(0.0015668811 -2.6186271e-06 0)
(0.0015688033 -2.5245023e-06 0)
(0.0015706578 -2.4304434e-06 0)
(0.0015724446 -2.3367297e-06 0)
(0.0015741637 -2.2436186e-06 0)
(0.0015758155 -2.1513461e-06 0)
(0.0015774006 -2.0601275e-06 0)
(0.0015789196 -1.970159e-06 0)
(0.0015803733 -1.8816173e-06 0)
(0.0015817626 -1.7946617e-06 0)
(0.0015830888 -1.7094338e-06 0)
(0.0015843529 -1.6260593e-06 0)
(0.0015855562 -1.5446479e-06 0)
(0.0015867002 -1.4652953e-06 0)
(0.0015877863 -1.3880824e-06 0)
(0.001588816 -1.3130778e-06 0)
(0.0015897908 -1.240337e-06 0)
(0.0015907124 -1.1699046e-06 0)
(0.0015915824 -1.1018136e-06 0)
(0.0015924026 -1.0360876e-06 0)
(0.0015931745 -9.7273996e-07 0)
(0.0015938999 -9.1177621e-07 0)
(0.0015945806 -8.5319272e-07 0)
(0.0015952182 -7.9697944e-07 0)
(0.0015958145 -7.4311843e-07 0)
(0.0015963711 -6.9158654e-07 0)
(0.0015968898 -6.4235379e-07 0)
(0.0015973721 -5.9538617e-07 0)
(0.0015978199 -5.5064389e-07 0)
(0.0015982346 -5.0808411e-07 0)
(0.0015986179 -4.6765911e-07 0)
(0.0015989713 -4.2931909e-07 0)
(0.0015992963 -3.9301024e-07 0)
(0.0015995945 -3.5867748e-07 0)
(0.0015998672 -3.2626249e-07 0)
(0.0016001158 -2.9570641e-07 0)
(0.0016003418 -2.6694791e-07 0)
(0.0016005465 -2.3992572e-07 0)
(0.001600731 -2.1457675e-07 0)
(0.0016008966 -1.9083846e-07 0)
(0.0016010446 -1.6864715e-07 0)
(0.001601176 -1.4794006e-07 0)
(0.001601292 -1.2865377e-07 0)
(0.0016013935 -1.1072616e-07 0)
(0.0016014816 -9.4094978e-08 0)
(0.0016015572 -7.8699482e-08 0)
(0.0016016212 -6.4479272e-08 0)
(0.0016016746 -5.1375613e-08 0)
(0.001601718 -3.9330553e-08 0)
(0.0016017524 -2.8287891e-08 0)
(0.0016017784 -1.8192609e-08 0)
(0.0016017967 -8.9914247e-09 0)
(0.0016018081 -6.3258589e-10 0)
(0.001601813 6.9339825e-09 0)
(0.0016018122 1.3756513e-08 0)
(0.0016018061 1.9881733e-08 0)
(0.0016017954 2.5354356e-08 0)
(0.0016017803 3.021778e-08 0)
(0.0016017615 3.4513283e-08 0)
(0.0016017393 3.8281217e-08 0)
(0.0016017141 4.156e-08 0)
(0.0016016864 4.438766e-08 0)
(0.0016016563 4.6800765e-08 0)
(0.0016016243 4.883651e-08 0)
(0.0016015906 5.0531868e-08 0)
(0.0016015555 5.1926271e-08 0)
(0.0016015192 5.3061476e-08 0)
(0.0016014818 5.3985428e-08 0)
(0.0016014437 5.4753786e-08 0)
(0.0016014048 5.543593e-08 0)
(0.0016013652 5.6119803e-08 0)
(0.001601325 5.692222e-08 0)
(0.0016012842 5.7999348e-08 0)
(0.0016012427 5.9562951e-08 0)
(0.0016012002 6.1894439e-08 0)
(0.0016011565 6.5351387e-08 0)
(0.0016011116 7.0334513e-08 0)
(0.0016010652 7.7201998e-08 0)
(0.001601014 8.594981e-08 0)
(0.0016009587 9.4332144e-08 0)
(0.00019822431 0.00048568691 0)
(0.0013027066 -0.00078439123 0)
(0.0029235813 -0.0018033442 0)
(0.0042785005 -0.0021953382 0)
(0.0052627956 -0.002192899 0)
(0.0059866798 -0.0019827945 0)
(0.0065275842 -0.0016811606 0)
(0.0069302875 -0.0013558919 0)
(0.0072233993 -0.0010434987 0)
(0.0074258558 -0.00076159836 0)
(0.0075512039 -0.00051701673 0)
(0.007610352 -0.00031063918 0)
(0.0076128776 -0.00014026123 0)
(0.0075675258 -2.2428603e-06 0)
(0.0074823275 0.0001075679 0)
(0.0073646096 0.00019329664 0)
(0.007220974 0.0002587766 0)
(0.0070572694 0.00030743901 0)
(0.006878595 0.00034227975 0)
(0.0066893306 0.00036586937 0)
(0.0064931856 0.00038038533 0)
(0.0062932601 0.00038765371 0)
(0.0060921103 0.00038919342 0)
(0.005891816 0.00038625894 0)
(0.0056940446 0.00037987972 0)
(0.0055001109 0.0003708955 0)
(0.0053110312 0.00035998719 0)
(0.0051275719 0.00034770369 0)
(0.0049502915 0.00033448464 0)
(0.0047795771 0.00032067979 0)
(0.004615676 0.00030656529 0)
(0.004458722 0.00029235722 0)
(0.004308758 0.0002782229 0)
(0.0041657544 0.00026429022 0)
(0.0040296252 0.00025065528 0)
(0.0039002402 0.00023738877 0)
(0.0037774362 0.00022454104 0)
(0.0036610252 0.00021214635 0)
(0.0035508019 0.00020022621 0)
(0.0034465487 0.00018879221 0)
(0.0033480409 0.00017784818 0)
(0.00325505 0.00016739203 0)
(0.0031673466 0.00015741712 0)
(0.003084703 0.00014791346 0)
(0.0030068944 0.0001388686 0)
(0.0029337004 0.00013026834 0)
(0.0028649063 0.00012209731 0)
(0.0028003036 0.00011433943 0)
(0.0027396903 0.00010697822 0)
(0.0026828716 9.9997113e-05 0)
(0.0026296599 9.3379623e-05 0)
(0.0025798748 8.7109519e-05 0)
(0.0025333433 8.1170933e-05 0)
(0.0024898994 7.5548447e-05 0)
(0.0024493846 7.0227147e-05 0)
(0.0024116469 6.5192662e-05 0)
(0.0023765412 6.0431191e-05 0)
(0.0023439291 5.5929507e-05 0)
(0.0023136782 5.1674966e-05 0)
(0.0022856624 4.7655497e-05 0)
(0.0022597613 4.3859594e-05 0)
(0.0022358601 4.0276302e-05 0)
(0.0022138495 3.6895199e-05 0)
(0.0021936251 3.3706376e-05 0)
(0.0021750875 3.070042e-05 0)
(0.0021581421 2.7868389e-05 0)
(0.0021426986 2.5201794e-05 0)
(0.002128671 2.2692575e-05 0)
(0.0021159772 2.033308e-05 0)
(0.0021045393 1.8116043e-05 0)
(0.0020942829 1.6034566e-05 0)
(0.0020851369 1.4082097e-05 0)
(0.0020770338 1.225241e-05 0)
(0.0020699094 1.0539588e-05 0)
(0.0020637021 8.9380014e-06 0)
(0.0020583536 7.4422963e-06 0)
(0.0020538081 6.0473736e-06 0)
(0.0020500127 4.7483749e-06 0)
(0.0020469166 3.5406678e-06 0)
(0.0020444719 2.4198317e-06 0)
(0.0020426327 1.3816452e-06 0)
(0.0020413553 4.2207275e-07 0)
(0.0020405982 -4.6274553e-07 0)
(0.0020403219 -1.2765065e-06 0)
(0.0020404887 -2.0227513e-06 0)
(0.002041063 -2.7048772e-06 0)
(0.0020420108 -3.3261451e-06 0)
(0.0020432998 -3.8896869e-06 0)
(0.0020448996 -4.3985128e-06 0)
(0.0020467809 -4.8555177e-06 0)
(0.0020489165 -5.2634872e-06 0)
(0.0020512802 -5.6251034e-06 0)
(0.0020538474 -5.9429489e-06 0)
(0.0020565949 -6.2195122e-06 0)
(0.0020595007 -6.4571908e-06 0)
(0.0020625442 -6.6582949e-06 0)
(0.0020657058 -6.8250507e-06 0)
(0.0020689674 -6.9596031e-06 0)
(0.0020723116 -7.0640179e-06 0)
(0.0020757226 -7.1402846e-06 0)
(0.0020791851 -7.1903176e-06 0)
(0.0020826853 -7.2159588e-06 0)
(0.00208621 -7.2189786e-06 0)
(0.0020897471 -7.2010776e-06 0)
(0.0020932853 -7.1638878e-06 0)
(0.0020968144 -7.1089744e-06 0)
(0.0021003248 -7.0378362e-06 0)
(0.0021038076 -6.9519073e-06 0)
(0.0021072549 -6.8525579e-06 0)
(0.0021106594 -6.7410958e-06 0)
(0.0021140145 -6.618767e-06 0)
(0.0021173143 -6.4867572e-06 0)
(0.0021205533 -6.3461926e-06 0)
(0.0021237269 -6.1981415e-06 0)
(0.0021268309 -6.0436149e-06 0)
(0.0021298617 -5.8835682e-06 0)
(0.0021328161 -5.7189022e-06 0)
(0.0021356914 -5.5504645e-06 0)
(0.0021384854 -5.3790509e-06 0)
(0.0021411964 -5.2054064e-06 0)
(0.0021438228 -5.0302274e-06 0)
(0.0021463638 -4.854162e-06 0)
(0.0021488185 -4.6778128e-06 0)
(0.0021511865 -4.5017374e-06 0)
(0.0021534679 -4.3264503e-06 0)
(0.0021556627 -4.1524246e-06 0)
(0.0021577715 -3.9800934e-06 0)
(0.0021597948 -3.8098513e-06 0)
(0.0021617337 -3.6420565e-06 0)
(0.002163589 -3.4770316e-06 0)
(0.0021653621 -3.3150659e-06 0)
(0.0021670545 -3.1564166e-06 0)
(0.0021686675 -3.0013105e-06 0)
(0.0021702029 -2.8499455e-06 0)
(0.0021716625 -2.7024925e-06 0)
(0.0021730481 -2.559096e-06 0)
(0.0021743616 -2.4198769e-06 0)
(0.0021756052 -2.2849325e-06 0)
(0.0021767808 -2.1543396e-06 0)
(0.0021778905 -2.0281539e-06 0)
(0.0021789366 -1.9064133e-06 0)
(0.0021799212 -1.7891378e-06 0)
(0.0021808465 -1.6763317e-06 0)
(0.0021817147 -1.567984e-06 0)
(0.002182528 -1.4640704e-06 0)
(0.0021832886 -1.3645538e-06 0)
(0.0021839986 -1.269386e-06 0)
(0.0021846603 -1.1785077e-06 0)
(0.0021852757 -1.0918512e-06 0)
(0.002185847 -1.0093394e-06 0)
(0.0021863762 -9.3088846e-07 0)
(0.0021868654 -8.5640704e-07 0)
(0.0021873165 -7.8579882e-07 0)
(0.0021877314 -7.1896166e-07 0)
(0.0021881122 -6.557898e-07 0)
(0.0021884605 -5.961732e-07 0)
(0.0021887783 -5.3999953e-07 0)
(0.0021890672 -4.8715353e-07 0)
(0.0021893288 -4.3751878e-07 0)
(0.0021895649 -3.9097711e-07 0)
(0.002189777 -3.4741021e-07 0)
(0.0021899665 -3.0669904e-07 0)
(0.0021901349 -2.6872525e-07 0)
(0.0021902837 -2.3337071e-07 0)
(0.0021904141 -2.0051868e-07 0)
(0.0021905274 -1.7005343e-07 0)
(0.0021906247 -1.4186122e-07 0)
(0.0021907074 -1.1583e-07 0)
(0.0021907764 -9.1850156e-08 0)
(0.0021908328 -6.9814413e-08 0)
(0.0021908776 -4.9618215e-08 0)
(0.0021909117 -3.1159849e-08 0)
(0.0021909361 -1.4340519e-08 0)
(0.0021909515 9.3533488e-10 0)
(0.0021909587 1.4760262e-08 0)
(0.0021909586 2.7223369e-08 0)
(0.0021909517 3.8410843e-08 0)
(0.0021909387 4.8405335e-08 0)
(0.0021909204 5.7286829e-08 0)
(0.0021908971 6.5132035e-08 0)
(0.0021908695 7.201559e-08 0)
(0.0021908381 7.8009502e-08 0)
(0.0021908032 8.3184789e-08 0)
(0.0021907655 8.7611288e-08 0)
(0.0021907251 9.1359952e-08 0)
(0.0021906826 9.4503367e-08 0)
(0.0021906381 9.7119149e-08 0)
(0.0021905921 9.929196e-08 0)
(0.0021905447 1.0111884e-07 0)
(0.0021904961 1.0271373e-07 0)
(0.0021904466 1.0421578e-07 0)
(0.0021903962 1.0579727e-07 0)
(0.002190345 1.0767449e-07 0)
(0.002190293 1.1011486e-07 0)
(0.0021902403 1.1343852e-07 0)
(0.0021901867 1.1799316e-07 0)
(0.0021901327 1.2407436e-07 0)
(0.0021900785 1.317502e-07 0)
(0.0021900206 1.4050683e-07 0)
(0.0021899588 1.4797871e-07 0)
(0.0039240557 -0.0026975605 0)
(0.0060226769 -0.0039695287 0)
(0.0077868527 -0.0039014476 0)
(0.0088188257 -0.0035169744 0)
(0.009347881 -0.0030382711 0)
(0.0096387118 -0.002540527 0)
(0.0098092451 -0.0020603502 0)
(0.0099066941 -0.0016149238 0)
(0.0099517988 -0.0012128113 0)
(0.0099535685 -0.00085799672 0)
(0.0099161528 -0.00055117459 0)
(0.0098423162 -0.00029068261 0)
(0.0097348662 -7.3331449e-05 0)
(0.0095970588 0.00010495161 0)
(0.0094325576 0.00024861517 0)
(0.0092453288 0.00036211958 0)
(0.0090394012 0.00044973491 0)
(0.008818699 0.00051540975 0)
(0.0085869103 0.00056270311 0)
(0.0083474032 0.00059476106 0)
(0.0081031808 0.00061432227 0)
(0.0078568652 0.00062374121 0)
(0.0076107034 0.00062502087 0)
(0.0073665871 0.00061984977 0)
(0.0071260804 0.00060963985 0)
(0.0068904532 0.00059556296 0)
(0.0066607142 0.00057858491 0)
(0.0064376449 0.00055949621 0)
(0.0062218313 0.00053893944 0)
(0.0060136929 0.00051743315 0)
(0.005813509 0.00049539259 0)
(0.0056214422 0.00047314744 0)
(0.0054375588 0.0004509568 0)
(0.0052618463 0.00042902196 0)
(0.0050942291 0.00040749695 0)
(0.004934581 0.00038649745 0)
(0.0047827361 0.00036610815 0)
(0.0046384985 0.00034638881 0)
(0.0045016491 0.00032737922 0)
(0.0043719528 0.00030910336 0)
(0.004249163 0.00029157273 0)
(0.0041330264 0.00027478903 0)
(0.0040232859 0.00025874642 0)
(0.0039196839 0.00024343328 0)
(0.0038219643 0.00022883365 0)
(0.0037298741 0.00021492842 0)
(0.0036431652 0.00020169619 0)
(0.0035615948 0.00018911405 0)
(0.0034849269 0.00017715816 0)
(0.0034129322 0.00016580417 0)
(0.003345389 0.00015502762 0)
(0.0032820832 0.00014480419 0)
(0.0032228084 0.00013510991 0)
(0.0031673661 0.00012592132 0)
(0.0031155655 0.00011721559 0)
(0.0030672236 0.00010897059 0)
(0.0030221649 0.00010116498 0)
(0.0029802213 9.3778196e-05 0)
(0.0029412319 8.6790498e-05 0)
(0.0029050426 8.0182974e-05 0)
(0.0028715065 7.393753e-05 0)
(0.0028404826 6.8036882e-05 0)
(0.0028118368 6.2464536e-05 0)
(0.0027854406 5.7204769e-05 0)
(0.0027611713 5.22426e-05 0)
(0.0027389121 4.7563768e-05 0)
(0.0027185513 4.31547e-05 0)
(0.0026999821 3.900248e-05 0)
(0.002683103 3.5094824e-05 0)
(0.0026678169 3.1420047e-05 0)
(0.0026540311 2.7967032e-05 0)
(0.0026416572 2.4725205e-05 0)
(0.0026306112 2.1684503e-05 0)
(0.0026208124 1.8835346e-05 0)
(0.0026121843 1.6168612e-05 0)
(0.0026046538 1.3675612e-05 0)
(0.002598151 1.134806e-05 0)
(0.0025926096 9.1780567e-06 0)
(0.002587966 7.1580605e-06 0)
(0.00258416 5.2808695e-06 0)
(0.0025811339 3.5396006e-06 0)
(0.0025788328 1.9276702e-06 0)
(0.0025772046 4.3877633e-07 0)
(0.0025761995 -9.3311768e-07 0)
(0.0025757702 -2.1938019e-06 0)
(0.0025758717 -3.3488311e-06 0)
(0.0025764611 -4.4035372e-06 0)
(0.0025774977 -5.363043e-06 0)
(0.0025789431 -6.2322728e-06 0)
(0.0025807605 -7.0159639e-06 0)
(0.0025829151 -7.7186753e-06 0)
(0.0025853741 -8.3447967e-06 0)
(0.0025881063 -8.8985557e-06 0)
(0.0025910822 -9.3840256e-06 0)
(0.0025942741 -9.8051305e-06 0)
(0.0025976556 -1.0165653e-05 0)
(0.0026012021 -1.0469235e-05 0)
(0.0026048903 -1.071939e-05 0)
(0.0026086983 -1.0919498e-05 0)
(0.0026126056 -1.1072815e-05 0)
(0.0026165932 -1.1182476e-05 0)
(0.0026206429 -1.1251494e-05 0)
(0.0026247382 -1.1282769e-05 0)
(0.0026288635 -1.1279085e-05 0)
(0.0026330043 -1.1243112e-05 0)
(0.0026371473 -1.1177415e-05 0)
(0.0026412802 -1.1084449e-05 0)
(0.0026453915 -1.0966561e-05 0)
(0.002649471 -1.0825998e-05 0)
(0.002653509 -1.0664904e-05 0)
(0.0026574971 -1.0485321e-05 0)
(0.0026614272 -1.0289194e-05 0)
(0.0026652925 -1.0078371e-05 0)
(0.0026690865 -9.8546069e-06 0)
(0.0026728038 -9.6195624e-06 0)
(0.0026764393 -9.3748083e-06 0)
(0.0026799888 -9.1218267e-06 0)
(0.0026834486 -8.8620133e-06 0)
(0.0026868156 -8.5966795e-06 0)