# Solver information
# Time          	U_solver        	Ux_initial      	Ux_final        	Ux_iters        	Uy_initial      	Uy_final        	Uy_iters        	U_converged     	p_solver        	p_initial       	p_final         	p_iters         	p_converged     
1               	smoothSolver	1.00000000e+00	7.98147480e-03	5	1.03642330e-06	3.80440270e-09	4	false	GAMG	1.00000000e+00	6.21173260e-03	5	true
2               	smoothSolver	1.98499830e-01	1.04773210e-03	6	2.24732380e-01	9.56538580e-04	6	false	GAMG	2.27900230e-03	1.74456330e-05	4	true
3               	smoothSolver	9.77360520e-02	5.42689940e-04	6	1.13705430e-01	5.41044820e-04	6	false	GAMG	1.52779470e-03	8.24105080e-06	4	true
4               	smoothSolver	5.56696120e-02	3.19166200e-04	6	6.28310510e-02	3.13984520e-04	6	false	GAMG	9.77902790e-04	5.49829130e-06	4	true
5               	smoothSolver	3.34295390e-02	1.99251000e-04	6	3.90254110e-02	2.07295130e-04	6	false	GAMG	6.53498800e-04	3.84868930e-06	4	true
6               	smoothSolver	2.21778270e-02	1.29279260e-04	6	2.63388880e-02	1.47466450e-04	6	false	GAMG	4.62589210e-04	2.74602690e-06	4	true
7               	smoothSolver	1.52817030e-02	8.68811190e-05	6	1.82511560e-02	1.07057160e-04	6	false	GAMG	3.26254810e-04	1.95121270e-06	4	true
8               	smoothSolver	1.06923820e-02	5.97579310e-05	6	1.28695460e-02	7.84299070e-05	6	false	GAMG	2.37251300e-04	1.39340880e-06	4	true
9               	smoothSolver	7.55482130e-03	4.17490140e-05	6	9.17426210e-03	5.77165060e-05	6	false	GAMG	1.73726200e-04	9.89956980e-07	4	true
10              	smoothSolver	5.37307800e-03	2.94831220e-05	6	6.59027060e-03	4.25662450e-05	6	false	GAMG	1.27774000e-04	7.04060650e-07	4	true
11              	smoothSolver	3.83865790e-03	2.09786130e-05	6	4.76214740e-03	3.14204160e-05	6	false	GAMG	9.57079580e-05	5.03270760e-07	4	true
12              	smoothSolver	2.75106320e-03	1.50071210e-05	6	3.45082660e-03	2.31949250e-05	6	false	GAMG	7.17283650e-05	3.63308510e-07	4	true
13              	smoothSolver	1.97600460e-03	1.07770870e-05	6	2.50473610e-03	1.71165190e-05	6	false	GAMG	5.34239500e-05	2.64703790e-07	4	true
14              	smoothSolver	1.42155850e-03	7.76166430e-06	6	1.81980440e-03	1.26239230e-05	6	false	GAMG	4.01144760e-05	1.93213830e-07	4	true
15              	smoothSolver	1.02385140e-03	5.60230590e-06	6	1.32282830e-03	9.30452750e-06	6	false	GAMG	3.02026690e-05	1.40655360e-07	4	true
16              	smoothSolver	7.38015040e-04	4.05083650e-06	6	9.61596320e-04	6.85418620e-06	6	false	GAMG	2.27020780e-05	1.02182530e-07	4	true
17              	smoothSolver	5.32290280e-04	2.93342770e-06	6	6.99046200e-04	5.04761320e-06	6	false	GAMG	1.70278720e-05	7.45271340e-08	4	true
18              	smoothSolver	3.84077810e-04	2.12693470e-06	6	5.08166190e-04	3.71665720e-06	6	false	GAMG	1.27473180e-05	5.41174300e-08	4	true
19              	smoothSolver	2.77217080e-04	1.54417160e-06	6	3.69361720e-04	2.73671560e-06	6	false	GAMG	9.52867180e-06	3.91487690e-08	4	true
20              	smoothSolver	2.00131590e-04	1.12244800e-06	6	2.68395150e-04	2.01716070e-06	6	false	GAMG	7.13049450e-06	2.82890680e-08	4	true
21              	smoothSolver	1.44503610e-04	8.16919850e-07	6	1.94997340e-04	1.48945010e-06	6	false	GAMG	5.33876940e-06	2.05231690e-08	4	true
22              	smoothSolver	1.04348920e-04	5.95359430e-07	6	1.41703570e-04	1.10214150e-06	6	false	GAMG	4.00069160e-06	1.47657790e-08	4	true
23              	smoothSolver	7.53585120e-05	4.34486520e-07	6	1.02999160e-04	8.17930660e-07	6	false	GAMG	2.98851790e-06	1.06561890e-08	4	true
24              	smoothSolver	5.44244920e-05	3.17616950e-07	6	7.49302180e-05	6.09536940e-07	6	false	GAMG	2.22873580e-06	7.67748060e-09	4	true
25              	smoothSolver	3.93059820e-05	2.32645170e-07	6	5.45537780e-05	4.56911530e-07	6	false	GAMG	1.66360660e-06	5.57925730e-09	4	true
26              	smoothSolver	2.83896040e-05	1.71452770e-07	6	3.97577230e-05	3.44872740e-07	6	false	GAMG	1.23540650e-06	3.97549620e-09	4	true
27              	smoothSolver	2.05037400e-05	1.27706270e-07	6	2.93729150e-05	2.62256600e-07	6	false	GAMG	9.17803000e-07	2.83253650e-09	4	true
28              	smoothSolver	1.48081050e-05	9.54900720e-08	6	2.18709080e-05	2.01169660e-07	6	false	GAMG	6.81428450e-07	8.50847540e-09	3	true
29              	smoothSolver	1.06939880e-05	7.17012040e-08	6	1.63984760e-05	1.55746110e-07	6	false	GAMG	5.10420390e-07	5.85199640e-09	3	true
30              	smoothSolver	7.72565670e-06	5.40443390e-08	6	1.23568920e-05	1.22563170e-07	6	false	GAMG	3.76146660e-07	4.41752530e-09	3	true
31              	smoothSolver	5.63125220e-06	4.09276060e-08	6	9.36401440e-06	4.73553870e-08	7	false	GAMG	2.79127240e-07	9.93572630e-09	2	true
32              	smoothSolver	4.14641110e-06	3.11645670e-08	6	7.14154040e-06	3.86239700e-08	7	false	GAMG	2.15675120e-07	8.18326560e-09	2	true
33              	smoothSolver	3.06318960e-06	2.38117440e-08	6	5.51707780e-06	3.18547190e-08	7	false	GAMG	1.56631680e-07	5.65021330e-09	2	true
34              	smoothSolver	2.30546670e-06	1.82928180e-08	6	4.36533040e-06	2.64232860e-08	7	false	GAMG	1.15426750e-07	4.07124310e-09	2	true
35              	smoothSolver	1.74891290e-06	1.41320950e-08	6	3.48256060e-06	2.19628340e-08	7	false	GAMG	8.64196950e-08	2.93218070e-09	2	true
36              	smoothSolver	1.33459740e-06	1.09741840e-08	6	2.80985000e-06	1.82878670e-08	7	false	GAMG	6.50665540e-08	2.12087150e-09	2	true
37              	smoothSolver	1.03621560e-06	8.57635530e-09	6	2.30905240e-06	1.52550830e-08	7	false	GAMG	4.92032710e-08	8.87784100e-09	1	true
38              	smoothSolver	8.18178820e-07	6.86439360e-09	6	1.89534690e-06	1.25315640e-08	7	false	GAMG	4.18077340e-08	6.19062590e-09	1	true
39              	smoothSolver	6.49376660e-07	5.53011160e-09	6	1.61474390e-06	1.06911610e-08	7	false	GAMG	3.24189180e-08	6.68861000e-09	1	true
40              	smoothSolver	5.19190180e-07	9.77387990e-09	5	1.35834920e-06	8.94637110e-09	7	false	GAMG	2.86122700e-08	5.26648370e-09	1	true
41              	smoothSolver	4.20858590e-07	7.98918340e-09	5	1.14847780e-06	7.52163120e-09	7	false	GAMG	2.36788610e-08	5.16439890e-09	1	true
42              	smoothSolver	3.43381740e-07	6.55499260e-09	5	9.65010360e-07	6.27966070e-09	7	false	GAMG	2.08089560e-08	4.33253770e-09	1	true
