/*--------------------------------*- C++ -*----------------------------------*\
| =========                 |                                                 |
| \\      /  F ield         | OpenFOAM: The Open Source CFD Toolbox           |
|  \\    /   O peration     | Version:  2406                                  |
|   \\  /    A nd           | Website:  www.openfoam.com                      |
|    \\/     M anipulation  |                                                 |
\*---------------------------------------------------------------------------*/
FoamFile
{
    version     2.0;
    format      ascii;
    arch        "LSB;label=32;scalar=64";
    class       volVectorField;
    location    "2000";
    object      C;
}
// * * * * * * * * * * * * * * * * * * * * * * * * * * * * * * * * * * * * * //

dimensions      [0 1 0 0 0 0 0];

internalField   nonuniform List<vector> 
11400
(
(2.5e-05 2.6125333e-05 5e-06)
(7.5e-05 2.6125333e-05 5e-06)
(0.000125 2.6125333e-05 5e-06)
(0.000175 2.6125333e-05 5e-06)
(0.000225 2.6125333e-05 5e-06)
(0.000275 2.6125333e-05 5e-06)
(0.000325 2.6125333e-05 5e-06)
(0.000375 2.6125333e-05 5e-06)
(0.000425 2.6125333e-05 5e-06)
(0.000475 2.6125333e-05 5e-06)
(0.000525 2.6125333e-05 5e-06)
(0.000575 2.6125333e-05 5e-06)
(0.000625 2.6125333e-05 5e-06)
(0.000675 2.6125333e-05 5e-06)
(0.000725 2.6125333e-05 5e-06)
(0.000775 2.6125333e-05 5e-06)
(0.000825 2.6125333e-05 5e-06)
(0.000875 2.6125333e-05 5e-06)
(0.000925 2.6125333e-05 5e-06)
(0.000975 2.6125333e-05 5e-06)
(0.001025 2.6125333e-05 5e-06)
(0.001075 2.6125333e-05 5e-06)
(0.001125 2.6125333e-05 5e-06)
(0.001175 2.6125333e-05 5e-06)
(0.001225 2.6125333e-05 5e-06)
(0.001275 2.6125333e-05 5e-06)
(0.001325 2.6125333e-05 5e-06)
(0.001375 2.6125333e-05 5e-06)
(0.001425 2.6125333e-05 5e-06)
(0.001475 2.6125333e-05 5e-06)
(0.001525 2.6125333e-05 5e-06)
(0.001575 2.6125333e-05 5e-06)
(0.001625 2.6125333e-05 5e-06)
(0.001675 2.6125333e-05 5e-06)
(0.001725 2.6125333e-05 5e-06)
(0.001775 2.6125333e-05 5e-06)
(0.001825 2.6125333e-05 5e-06)
(0.001875 2.6125333e-05 5e-06)
(0.001925 2.6125333e-05 5e-06)
(0.001975 2.6125333e-05 5e-06)
(0.002025 2.6125333e-05 5e-06)
(0.002075 2.6125333e-05 5e-06)
(0.002125 2.6125333e-05 5e-06)
(0.002175 2.6125333e-05 5e-06)
(0.002225 2.6125333e-05 5e-06)
(0.002275 2.6125333e-05 5e-06)
(0.002325 2.6125333e-05 5e-06)
(0.002375 2.6125333e-05 5e-06)
(0.002425 2.6125333e-05 5e-06)
(0.002475 2.6125333e-05 5e-06)
(0.002525 2.6125333e-05 5e-06)
(0.002575 2.6125333e-05 5e-06)
(0.002625 2.6125333e-05 5e-06)
(0.002675 2.6125333e-05 5e-06)
(0.002725 2.6125333e-05 5e-06)
(0.002775 2.6125333e-05 5e-06)
(0.002825 2.6125333e-05 5e-06)
(0.002875 2.6125333e-05 5e-06)
(0.002925 2.6125333e-05 5e-06)
(0.002975 2.6125333e-05 5e-06)
(0.003025 2.6125333e-05 5e-06)
(0.003075 2.6125333e-05 5e-06)
(0.003125 2.6125333e-05 5e-06)
(0.003175 2.6125333e-05 5e-06)
(0.003225 2.6125333e-05 5e-06)
(0.003275 2.6125333e-05 5e-06)
(0.003325 2.6125333e-05 5e-06)
(0.003375 2.6125333e-05 5e-06)
(0.003425 2.6125333e-05 5e-06)
(0.003475 2.6125333e-05 5e-06)
(0.003525 2.6125333e-05 5e-06)
(0.003575 2.6125333e-05 5e-06)
(0.003625 2.6125333e-05 5e-06)
(0.003675 2.6125333e-05 5e-06)
(0.003725 2.6125333e-05 5e-06)
(0.003775 2.6125333e-05 5e-06)
(0.003825 2.6125333e-05 5e-06)
(0.003875 2.6125333e-05 5e-06)
(0.003925 2.6125333e-05 5e-06)
(0.003975 2.6125333e-05 5e-06)
(0.004025 2.6125333e-05 5e-06)
(0.004075 2.6125333e-05 5e-06)
(0.004125 2.6125333e-05 5e-06)
(0.004175 2.6125333e-05 5e-06)
(0.004225 2.6125333e-05 5e-06)
(0.004275 2.6125333e-05 5e-06)
(0.004325 2.6125333e-05 5e-06)
(0.004375 2.6125333e-05 5e-06)
(0.004425 2.6125333e-05 5e-06)
(0.004475 2.6125333e-05 5e-06)
(0.004525 2.6125333e-05 5e-06)
(0.004575 2.6125333e-05 5e-06)
(0.004625 2.6125333e-05 5e-06)
(0.004675 2.6125333e-05 5e-06)
(0.004725 2.6125333e-05 5e-06)
(0.004775 2.6125333e-05 5e-06)
(0.004825 2.6125333e-05 5e-06)
(0.004875 2.6125333e-05 5e-06)
(0.004925 2.6125333e-05 5e-06)
(0.004975 2.6125333e-05 5e-06)
(0.005025 2.6125333e-05 5e-06)
(0.005075 2.6125333e-05 5e-06)
(0.005125 2.6125333e-05 5e-06)
(0.005175 2.6125333e-05 5e-06)
(0.005225 2.6125333e-05 5e-06)
(0.005275 2.6125333e-05 5e-06)
(0.005325 2.6125333e-05 5e-06)
(0.005375 2.6125333e-05 5e-06)
(0.005425 2.6125333e-05 5e-06)
(0.005475 2.6125333e-05 5e-06)
(0.005525 2.6125333e-05 5e-06)
(0.005575 2.6125333e-05 5e-06)
(0.005625 2.6125333e-05 5e-06)
(0.005675 2.6125333e-05 5e-06)
(0.005725 2.6125333e-05 5e-06)
(0.005775 2.6125333e-05 5e-06)
(0.005825 2.6125333e-05 5e-06)
(0.005875 2.6125333e-05 5e-06)
(0.005925 2.6125333e-05 5e-06)
(0.005975 2.6125333e-05 5e-06)
(0.006025 2.6125333e-05 5e-06)
(0.006075 2.6125333e-05 5e-06)
(0.006125 2.6125333e-05 5e-06)
(0.006175 2.6125333e-05 5e-06)
(0.006225 2.6125333e-05 5e-06)
(0.006275 2.6125333e-05 5e-06)
(0.006325 2.6125333e-05 5e-06)
(0.006375 2.6125333e-05 5e-06)
(0.006425 2.6125333e-05 5e-06)
(0.006475 2.6125333e-05 5e-06)
(0.006525 2.6125333e-05 5e-06)
(0.006575 2.6125333e-05 5e-06)
(0.006625 2.6125333e-05 5e-06)
(0.006675 2.6125333e-05 5e-06)
(0.006725 2.6125333e-05 5e-06)
(0.006775 2.6125333e-05 5e-06)
(0.006825 2.6125333e-05 5e-06)
(0.006875 2.6125333e-05 5e-06)
(0.006925 2.6125333e-05 5e-06)
(0.006975 2.6125333e-05 5e-06)
(0.007025 2.6125333e-05 5e-06)
(0.007075 2.6125333e-05 5e-06)
(0.007125 2.6125333e-05 5e-06)
(0.007175 2.6125333e-05 5e-06)
(0.007225 2.6125333e-05 5e-06)
(0.007275 2.6125333e-05 5e-06)
(0.007325 2.6125333e-05 5e-06)
(0.007375 2.6125333e-05 5e-06)
(0.007425 2.6125333e-05 5e-06)
(0.007475 2.6125333e-05 5e-06)
(0.007525 2.6125333e-05 5e-06)
(0.007575 2.6125333e-05 5e-06)
(0.007625 2.6125333e-05 5e-06)
(0.007675 2.6125333e-05 5e-06)
(0.007725 2.6125333e-05 5e-06)
(0.007775 2.6125333e-05 5e-06)
(0.007825 2.6125333e-05 5e-06)
(0.007875 2.6125333e-05 5e-06)
(0.007925 2.6125333e-05 5e-06)
(0.007975 2.6125333e-05 5e-06)
(0.008025 2.6125333e-05 5e-06)
(0.008075 2.6125333e-05 5e-06)
(0.008125 2.6125333e-05 5e-06)
(0.008175 2.6125333e-05 5e-06)
(0.008225 2.6125333e-05 5e-06)
(0.008275 2.6125333e-05 5e-06)
(0.008325 2.6125333e-05 5e-06)
(0.008375 2.6125333e-05 5e-06)
(0.008425 2.6125333e-05 5e-06)
(0.008475 2.6125333e-05 5e-06)
(0.008525 2.6125333e-05 5e-06)
(0.008575 2.6125333e-05 5e-06)
(0.008625 2.6125333e-05 5e-06)
(0.008675 2.6125333e-05 5e-06)
(0.008725 2.6125333e-05 5e-06)
(0.008775 2.6125333e-05 5e-06)
(0.008825 2.6125333e-05 5e-06)
(0.008875 2.6125333e-05 5e-06)
(0.008925 2.6125333e-05 5e-06)
(0.008975 2.6125333e-05 5e-06)
(0.009025 2.6125333e-05 5e-06)
(0.009075 2.6125333e-05 5e-06)
(0.009125 2.6125333e-05 5e-06)
(0.009175 2.6125333e-05 5e-06)
(0.009225 2.6125333e-05 5e-06)
(0.009275 2.6125333e-05 5e-06)
(0.009325 2.6125333e-05 5e-06)
(0.009375 2.6125333e-05 5e-06)
(0.009425 2.6125333e-05 5e-06)
(0.009475 2.6125333e-05 5e-06)
(0.009525 2.6125333e-05 5e-06)
(0.009575 2.6125333e-05 5e-06)
(0.009625 2.6125333e-05 5e-06)
(0.009675 2.6125333e-05 5e-06)
(0.009725 2.6125333e-05 5e-06)
(0.009775 2.6125333e-05 5e-06)
(0.009825 2.6125333e-05 5e-06)
(0.009875 2.6125333e-05 5e-06)
(0.009925 2.6125333e-05 5e-06)
(0.009975 2.6125333e-05 5e-06)
(2.5e-05 7.8376e-05 5e-06)
(7.5e-05 7.8376e-05 5e-06)
(0.000125 7.8376e-05 5e-06)
(0.000175 7.8376e-05 5e-06)
(0.000225 7.8376e-05 5e-06)
(0.000275 7.8376e-05 5e-06)
(0.000325 7.8376e-05 5e-06)
(0.000375 7.8376e-05 5e-06)
(0.000425 7.8376e-05 5e-06)
(0.000475 7.8376e-05 5e-06)
(0.000525 7.8376e-05 5e-06)
(0.000575 7.8376e-05 5e-06)
(0.000625 7.8376e-05 5e-06)
(0.000675 7.8376e-05 5e-06)
(0.000725 7.8376e-05 5e-06)
(0.000775 7.8376e-05 5e-06)
(0.000825 7.8376e-05 5e-06)
(0.000875 7.8376e-05 5e-06)
(0.000925 7.8376e-05 5e-06)
(0.000975 7.8376e-05 5e-06)
(0.001025 7.8376e-05 5e-06)
(0.001075 7.8376e-05 5e-06)
(0.001125 7.8376e-05 5e-06)
(0.001175 7.8376e-05 5e-06)
(0.001225 7.8376e-05 5e-06)
(0.001275 7.8376e-05 5e-06)
(0.001325 7.8376e-05 5e-06)
(0.001375 7.8376e-05 5e-06)
(0.001425 7.8376e-05 5e-06)
(0.001475 7.8376e-05 5e-06)
(0.001525 7.8376e-05 5e-06)
(0.001575 7.8376e-05 5e-06)
(0.001625 7.8376e-05 5e-06)
(0.001675 7.8376e-05 5e-06)
(0.001725 7.8376e-05 5e-06)
(0.001775 7.8376e-05 5e-06)
(0.001825 7.8376e-05 5e-06)
(0.001875 7.8376e-05 5e-06)
(0.001925 7.8376e-05 5e-06)
(0.001975 7.8376e-05 5e-06)
(0.002025 7.8376e-05 5e-06)
(0.002075 7.8376e-05 5e-06)
(0.002125 7.8376e-05 5e-06)
(0.002175 7.8376e-05 5e-06)
(0.002225 7.8376e-05 5e-06)
(0.002275 7.8376e-05 5e-06)
(0.002325 7.8376e-05 5e-06)
(0.002375 7.8376e-05 5e-06)
(0.002425 7.8376e-05 5e-06)
(0.002475 7.8376e-05 5e-06)
(0.002525 7.8376e-05 5e-06)
(0.002575 7.8376e-05 5e-06)
(0.002625 7.8376e-05 5e-06)
(0.002675 7.8376e-05 5e-06)
(0.002725 7.8376e-05 5e-06)
(0.002775 7.8376e-05 5e-06)
(0.002825 7.8376e-05 5e-06)
(0.002875 7.8376e-05 5e-06)
(0.002925 7.8376e-05 5e-06)
(0.002975 7.8376e-05 5e-06)
(0.003025 7.8376e-05 5e-06)
(0.003075 7.8376e-05 5e-06)
(0.003125 7.8376e-05 5e-06)
(0.003175 7.8376e-05 5e-06)
(0.003225 7.8376e-05 5e-06)
(0.003275 7.8376e-05 5e-06)
(0.003325 7.8376e-05 5e-06)
(0.003375 7.8376e-05 5e-06)
(0.003425 7.8376e-05 5e-06)
(0.003475 7.8376e-05 5e-06)
(0.003525 7.8376e-05 5e-06)
(0.003575 7.8376e-05 5e-06)
(0.003625 7.8376e-05 5e-06)
(0.003675 7.8376e-05 5e-06)
(0.003725 7.8376e-05 5e-06)
(0.003775 7.8376e-05 5e-06)
(0.003825 7.8376e-05 5e-06)
(0.003875 7.8376e-05 5e-06)
(0.003925 7.8376e-05 5e-06)
(0.003975 7.8376e-05 5e-06)
(0.004025 7.8376e-05 5e-06)
(0.004075 7.8376e-05 5e-06)
(0.004125 7.8376e-05 5e-06)
(0.004175 7.8376e-05 5e-06)
(0.004225 7.8376e-05 5e-06)
(0.004275 7.8376e-05 5e-06)
(0.004325 7.8376e-05 5e-06)
(0.004375 7.8376e-05 5e-06)
(0.004425 7.8376e-05 5e-06)
(0.004475 7.8376e-05 5e-06)
(0.004525 7.8376e-05 5e-06)
(0.004575 7.8376e-05 5e-06)
(0.004625 7.8376e-05 5e-06)
(0.004675 7.8376e-05 5e-06)
(0.004725 7.8376e-05 5e-06)
(0.004775 7.8376e-05 5e-06)
(0.004825 7.8376e-05 5e-06)
(0.004875 7.8376e-05 5e-06)
(0.004925 7.8376e-05 5e-06)
(0.004975 7.8376e-05 5e-06)
(0.005025 7.8376e-05 5e-06)
(0.005075 7.8376e-05 5e-06)
(0.005125 7.8376e-05 5e-06)
(0.005175 7.8376e-05 5e-06)
(0.005225 7.8376e-05 5e-06)
(0.005275 7.8376e-05 5e-06)
(0.005325 7.8376e-05 5e-06)
(0.005375 7.8376e-05 5e-06)
(0.005425 7.8376e-05 5e-06)
(0.005475 7.8376e-05 5e-06)
(0.005525 7.8376e-05 5e-06)
(0.005575 7.8376e-05 5e-06)
(0.005625 7.8376e-05 5e-06)
(0.005675 7.8376e-05 5e-06)
(0.005725 7.8376e-05 5e-06)
(0.005775 7.8376e-05 5e-06)
(0.005825 7.8376e-05 5e-06)
(0.005875 7.8376e-05 5e-06)
(0.005925 7.8376e-05 5e-06)
(0.005975 7.8376e-05 5e-06)
(0.006025 7.8376e-05 5e-06)
(0.006075 7.8376e-05 5e-06)
(0.006125 7.8376e-05 5e-06)
(0.006175 7.8376e-05 5e-06)
(0.006225 7.8376e-05 5e-06)
(0.006275 7.8376e-05 5e-06)
(0.006325 7.8376e-05 5e-06)
(0.006375 7.8376e-05 5e-06)
(0.006425 7.8376e-05 5e-06)
(0.006475 7.8376e-05 5e-06)
(0.006525 7.8376e-05 5e-06)
(0.006575 7.8376e-05 5e-06)
(0.006625 7.8376e-05 5e-06)
(0.006675 7.8376e-05 5e-06)
(0.006725 7.8376e-05 5e-06)
(0.006775 7.8376e-05 5e-06)
(0.006825 7.8376e-05 5e-06)
(0.006875 7.8376e-05 5e-06)
(0.006925 7.8376e-05 5e-06)
(0.006975 7.8376e-05 5e-06)
(0.007025 7.8376e-05 5e-06)
(0.007075 7.8376e-05 5e-06)
(0.007125 7.8376e-05 5e-06)
(0.007175 7.8376e-05 5e-06)
(0.007225 7.8376e-05 5e-06)
(0.007275 7.8376e-05 5e-06)
(0.007325 7.8376e-05 5e-06)
(0.007375 7.8376e-05 5e-06)
(0.007425 7.8376e-05 5e-06)
(0.007475 7.8376e-05 5e-06)
(0.007525 7.8376e-05 5e-06)
(0.007575 7.8376e-05 5e-06)
(0.007625 7.8376e-05 5e-06)
(0.007675 7.8376e-05 5e-06)
(0.007725 7.8376e-05 5e-06)
(0.007775 7.8376e-05 5e-06)
(0.007825 7.8376e-05 5e-06)
(0.007875 7.8376e-05 5e-06)
(0.007925 7.8376e-05 5e-06)
(0.007975 7.8376e-05 5e-06)
(0.008025 7.8376e-05 5e-06)
(0.008075 7.8376e-05 5e-06)
(0.008125 7.8376e-05 5e-06)
(0.008175 7.8376e-05 5e-06)
(0.008225 7.8376e-05 5e-06)
(0.008275 7.8376e-05 5e-06)
(0.008325 7.8376e-05 5e-06)
(0.008375 7.8376e-05 5e-06)
(0.008425 7.8376e-05 5e-06)
(0.008475 7.8376e-05 5e-06)
(0.008525 7.8376e-05 5e-06)
(0.008575 7.8376e-05 5e-06)
(0.008625 7.8376e-05 5e-06)
(0.008675 7.8376e-05 5e-06)
(0.008725 7.8376e-05 5e-06)
(0.008775 7.8376e-05 5e-06)
(0.008825 7.8376e-05 5e-06)
(0.008875 7.8376e-05 5e-06)
(0.008925 7.8376e-05 5e-06)
(0.008975 7.8376e-05 5e-06)
(0.009025 7.8376e-05 5e-06)
(0.009075 7.8376e-05 5e-06)
(0.009125 7.8376e-05 5e-06)
(0.009175 7.8376e-05 5e-06)
(0.009225 7.8376e-05 5e-06)
(0.009275 7.8376e-05 5e-06)
(0.009325 7.8376e-05 5e-06)
(0.009375 7.8376e-05 5e-06)
(0.009425 7.8376e-05 5e-06)
(0.009475 7.8376e-05 5e-06)
(0.009525 7.8376e-05 5e-06)
(0.009575 7.8376e-05 5e-06)
(0.009625 7.8376e-05 5e-06)
(0.009675 7.8376e-05 5e-06)
(0.009725 7.8376e-05 5e-06)
(0.009775 7.8376e-05 5e-06)
(0.009825 7.8376e-05 5e-06)
(0.009875 7.8376e-05 5e-06)
(0.009925 7.8376e-05 5e-06)
(0.009975 7.8376e-05 5e-06)
(2.5e-05 0.00013062667 5e-06)
(7.5e-05 0.00013062667 5e-06)
(0.000125 0.00013062667 5e-06)
(0.000175 0.00013062667 5e-06)
(0.000225 0.00013062667 5e-06)
(0.000275 0.00013062667 5e-06)
(0.000325 0.00013062667 5e-06)
(0.000375 0.00013062667 5e-06)
(0.000425 0.00013062667 5e-06)
(0.000475 0.00013062667 5e-06)
(0.000525 0.00013062667 5e-06)
(0.000575 0.00013062667 5e-06)
(0.000625 0.00013062667 5e-06)
(0.000675 0.00013062667 5e-06)
(0.000725 0.00013062667 5e-06)
(0.000775 0.00013062667 5e-06)
(0.000825 0.00013062667 5e-06)
(0.000875 0.00013062667 5e-06)
(0.000925 0.00013062667 5e-06)
(0.000975 0.00013062667 5e-06)
(0.001025 0.00013062667 5e-06)
(0.001075 0.00013062667 5e-06)
(0.001125 0.00013062667 5e-06)
(0.001175 0.00013062667 5e-06)
(0.001225 0.00013062667 5e-06)
(0.001275 0.00013062667 5e-06)
(0.001325 0.00013062667 5e-06)
(0.001375 0.00013062667 5e-06)
(0.001425 0.00013062667 5e-06)
(0.001475 0.00013062667 5e-06)
(0.001525 0.00013062667 5e-06)
(0.001575 0.00013062667 5e-06)
(0.001625 0.00013062667 5e-06)
(0.001675 0.00013062667 5e-06)
(0.001725 0.00013062667 5e-06)
(0.001775 0.00013062667 5e-06)
(0.001825 0.00013062667 5e-06)
(0.001875 0.00013062667 5e-06)
(0.001925 0.00013062667 5e-06)
(0.001975 0.00013062667 5e-06)
(0.002025 0.00013062667 5e-06)
(0.002075 0.00013062667 5e-06)
(0.002125 0.00013062667 5e-06)
(0.002175 0.00013062667 5e-06)
(0.002225 0.00013062667 5e-06)
(0.002275 0.00013062667 5e-06)
(0.002325 0.00013062667 5e-06)
(0.002375 0.00013062667 5e-06)
(0.002425 0.00013062667 5e-06)
(0.002475 0.00013062667 5e-06)
(0.002525 0.00013062667 5e-06)
(0.002575 0.00013062667 5e-06)
(0.002625 0.00013062667 5e-06)
(0.002675 0.00013062667 5e-06)
(0.002725 0.00013062667 5e-06)
(0.002775 0.00013062667 5e-06)
(0.002825 0.00013062667 5e-06)
(0.002875 0.00013062667 5e-06)
(0.002925 0.00013062667 5e-06)
(0.002975 0.00013062667 5e-06)
(0.003025 0.00013062667 5e-06)
(0.003075 0.00013062667 5e-06)
(0.003125 0.00013062667 5e-06)
(0.003175 0.00013062667 5e-06)
(0.003225 0.00013062667 5e-06)
(0.003275 0.00013062667 5e-06)
(0.003325 0.00013062667 5e-06)
(0.003375 0.00013062667 5e-06)
(0.003425 0.00013062667 5e-06)
(0.003475 0.00013062667 5e-06)
(0.003525 0.00013062667 5e-06)
(0.003575 0.00013062667 5e-06)
(0.003625 0.00013062667 5e-06)
(0.003675 0.00013062667 5e-06)
(0.003725 0.00013062667 5e-06)
(0.003775 0.00013062667 5e-06)
(0.003825 0.00013062667 5e-06)
(0.003875 0.00013062667 5e-06)
(0.003925 0.00013062667 5e-06)
(0.003975 0.00013062667 5e-06)
(0.004025 0.00013062667 5e-06)
(0.004075 0.00013062667 5e-06)
(0.004125 0.00013062667 5e-06)
(0.004175 0.00013062667 5e-06)
(0.004225 0.00013062667 5e-06)
(0.004275 0.00013062667 5e-06)
(0.004325 0.00013062667 5e-06)
(0.004375 0.00013062667 5e-06)
(0.004425 0.00013062667 5e-06)
(0.004475 0.00013062667 5e-06)
(0.004525 0.00013062667 5e-06)
(0.004575 0.00013062667 5e-06)
(0.004625 0.00013062667 5e-06)
(0.004675 0.00013062667 5e-06)
(0.004725 0.00013062667 5e-06)
(0.004775 0.00013062667 5e-06)
(0.004825 0.00013062667 5e-06)
(0.004875 0.00013062667 5e-06)
(0.004925 0.00013062667 5e-06)
(0.004975 0.00013062667 5e-06)
(0.005025 0.00013062667 5e-06)
(0.005075 0.00013062667 5e-06)
(0.005125 0.00013062667 5e-06)
(0.005175 0.00013062667 5e-06)
(0.005225 0.00013062667 5e-06)
(0.005275 0.00013062667 5e-06)
(0.005325 0.00013062667 5e-06)
(0.005375 0.00013062667 5e-06)
(0.005425 0.00013062667 5e-06)
(0.005475 0.00013062667 5e-06)
(0.005525 0.00013062667 5e-06)
(0.005575 0.00013062667 5e-06)
(0.005625 0.00013062667 5e-06)
(0.005675 0.00013062667 5e-06)
(0.005725 0.00013062667 5e-06)
(0.005775 0.00013062667 5e-06)
(0.005825 0.00013062667 5e-06)
(0.005875 0.00013062667 5e-06)
(0.005925 0.00013062667 5e-06)
(0.005975 0.00013062667 5e-06)
(0.006025 0.00013062667 5e-06)
(0.006075 0.00013062667 5e-06)
(0.006125 0.00013062667 5e-06)
(0.006175 0.00013062667 5e-06)
(0.006225 0.00013062667 5e-06)
(0.006275 0.00013062667 5e-06)
(0.006325 0.00013062667 5e-06)
(0.006375 0.00013062667 5e-06)
(0.006425 0.00013062667 5e-06)
(0.006475 0.00013062667 5e-06)
(0.006525 0.00013062667 5e-06)
(0.006575 0.00013062667 5e-06)
(0.006625 0.00013062667 5e-06)
(0.006675 0.00013062667 5e-06)
(0.006725 0.00013062667 5e-06)
(0.006775 0.00013062667 5e-06)
(0.006825 0.00013062667 5e-06)
(0.006875 0.00013062667 5e-06)
(0.006925 0.00013062667 5e-06)
(0.006975 0.00013062667 5e-06)
(0.007025 0.00013062667 5e-06)
(0.007075 0.00013062667 5e-06)
(0.007125 0.00013062667 5e-06)
(0.007175 0.00013062667 5e-06)
(0.007225 0.00013062667 5e-06)
(0.007275 0.00013062667 5e-06)
(0.007325 0.00013062667 5e-06)
(0.007375 0.00013062667 5e-06)
(0.007425 0.00013062667 5e-06)
(0.007475 0.00013062667 5e-06)
(0.007525 0.00013062667 5e-06)
(0.007575 0.00013062667 5e-06)
(0.007625 0.00013062667 5e-06)
(0.007675 0.00013062667 5e-06)
(0.007725 0.00013062667 5e-06)
(0.007775 0.00013062667 5e-06)
(0.007825 0.00013062667 5e-06)
(0.007875 0.00013062667 5e-06)
(0.007925 0.00013062667 5e-06)
(0.007975 0.00013062667 5e-06)
(0.008025 0.00013062667 5e-06)
(0.008075 0.00013062667 5e-06)
(0.008125 0.00013062667 5e-06)
(0.008175 0.00013062667 5e-06)
(0.008225 0.00013062667 5e-06)
(0.008275 0.00013062667 5e-06)
(0.008325 0.00013062667 5e-06)
(0.008375 0.00013062667 5e-06)
(0.008425 0.00013062667 5e-06)
(0.008475 0.00013062667 5e-06)
(0.008525 0.00013062667 5e-06)
(0.008575 0.00013062667 5e-06)
(0.008625 0.00013062667 5e-06)
(0.008675 0.00013062667 5e-06)
(0.008725 0.00013062667 5e-06)
(0.008775 0.00013062667 5e-06)
(0.008825 0.00013062667 5e-06)
(0.008875 0.00013062667 5e-06)
(0.008925 0.00013062667 5e-06)
(0.008975 0.00013062667 5e-06)
(0.009025 0.00013062667 5e-06)
(0.009075 0.00013062667 5e-06)
(0.009125 0.00013062667 5e-06)
(0.009175 0.00013062667 5e-06)
(0.009225 0.00013062667 5e-06)
(0.009275 0.00013062667 5e-06)
(0.009325 0.00013062667 5e-06)
(0.009375 0.00013062667 5e-06)
(0.009425 0.00013062667 5e-06)
(0.009475 0.00013062667 5e-06)
(0.009525 0.00013062667 5e-06)
(0.009575 0.00013062667 5e-06)
(0.009625 0.00013062667 5e-06)
(0.009675 0.00013062667 5e-06)
(0.009725 0.00013062667 5e-06)
(0.009775 0.00013062667 5e-06)
(0.009825 0.00013062667 5e-06)
(0.009875 0.00013062667 5e-06)
(0.009925 0.00013062667 5e-06)
(0.009975 0.00013062667 5e-06)
(2.5e-05 0.00018287733 5e-06)
(7.5e-05 0.00018287733 5e-06)
(0.000125 0.00018287733 5e-06)
(0.000175 0.00018287733 5e-06)
(0.000225 0.00018287733 5e-06)
(0.000275 0.00018287733 5e-06)
(0.000325 0.00018287733 5e-06)
(0.000375 0.00018287733 5e-06)
(0.000425 0.00018287733 5e-06)
(0.000475 0.00018287733 5e-06)
(0.000525 0.00018287733 5e-06)
(0.000575 0.00018287733 5e-06)
(0.000625 0.00018287733 5e-06)
(0.000675 0.00018287733 5e-06)
(0.000725 0.00018287733 5e-06)
(0.000775 0.00018287733 5e-06)
(0.000825 0.00018287733 5e-06)
(0.000875 0.00018287733 5e-06)
(0.000925 0.00018287733 5e-06)
(0.000975 0.00018287733 5e-06)
(0.001025 0.00018287733 5e-06)
(0.001075 0.00018287733 5e-06)
(0.001125 0.00018287733 5e-06)
(0.001175 0.00018287733 5e-06)
(0.001225 0.00018287733 5e-06)
(0.001275 0.00018287733 5e-06)
(0.001325 0.00018287733 5e-06)
(0.001375 0.00018287733 5e-06)
(0.001425 0.00018287733 5e-06)
(0.001475 0.00018287733 5e-06)
(0.001525 0.00018287733 5e-06)
(0.001575 0.00018287733 5e-06)
(0.001625 0.00018287733 5e-06)
(0.001675 0.00018287733 5e-06)
(0.001725 0.00018287733 5e-06)
(0.001775 0.00018287733 5e-06)
(0.001825 0.00018287733 5e-06)
(0.001875 0.00018287733 5e-06)
(0.001925 0.00018287733 5e-06)
(0.001975 0.00018287733 5e-06)
(0.002025 0.00018287733 5e-06)
(0.002075 0.00018287733 5e-06)
(0.002125 0.00018287733 5e-06)
(0.002175 0.00018287733 5e-06)
(0.002225 0.00018287733 5e-06)
(0.002275 0.00018287733 5e-06)
(0.002325 0.00018287733 5e-06)
(0.002375 0.00018287733 5e-06)
(0.002425 0.00018287733 5e-06)
(0.002475 0.00018287733 5e-06)
(0.002525 0.00018287733 5e-06)
(0.002575 0.00018287733 5e-06)
(0.002625 0.00018287733 5e-06)
(0.002675 0.00018287733 5e-06)
(0.002725 0.00018287733 5e-06)
(0.002775 0.00018287733 5e-06)
(0.002825 0.00018287733 5e-06)
(0.002875 0.00018287733 5e-06)
(0.002925 0.00018287733 5e-06)
(0.002975 0.00018287733 5e-06)
(0.003025 0.00018287733 5e-06)
(0.003075 0.00018287733 5e-06)
(0.003125 0.00018287733 5e-06)
(0.003175 0.00018287733 5e-06)
(0.003225 0.00018287733 5e-06)
(0.003275 0.00018287733 5e-06)
(0.003325 0.00018287733 5e-06)
(0.003375 0.00018287733 5e-06)
(0.003425 0.00018287733 5e-06)
(0.003475 0.00018287733 5e-06)
(0.003525 0.00018287733 5e-06)
(0.003575 0.00018287733 5e-06)
(0.003625 0.00018287733 5e-06)
(0.003675 0.00018287733 5e-06)
(0.003725 0.00018287733 5e-06)
(0.003775 0.00018287733 5e-06)
(0.003825 0.00018287733 5e-06)
(0.003875 0.00018287733 5e-06)
(0.003925 0.00018287733 5e-06)
(0.003975 0.00018287733 5e-06)
(0.004025 0.00018287733 5e-06)
(0.004075 0.00018287733 5e-06)
(0.004125 0.00018287733 5e-06)
(0.004175 0.00018287733 5e-06)
(0.004225 0.00018287733 5e-06)
(0.004275 0.00018287733 5e-06)
(0.004325 0.00018287733 5e-06)
(0.004375 0.00018287733 5e-06)
(0.004425 0.00018287733 5e-06)
(0.004475 0.00018287733 5e-06)
(0.004525 0.00018287733 5e-06)
(0.004575 0.00018287733 5e-06)
(0.004625 0.00018287733 5e-06)
(0.004675 0.00018287733 5e-06)
(0.004725 0.00018287733 5e-06)
(0.004775 0.00018287733 5e-06)
(0.004825 0.00018287733 5e-06)
(0.004875 0.00018287733 5e-06)
(0.004925 0.00018287733 5e-06)
(0.004975 0.00018287733 5e-06)
(0.005025 0.00018287733 5e-06)
(0.005075 0.00018287733 5e-06)
(0.005125 0.00018287733 5e-06)
(0.005175 0.00018287733 5e-06)
(0.005225 0.00018287733 5e-06)
(0.005275 0.00018287733 5e-06)
(0.005325 0.00018287733 5e-06)
(0.005375 0.00018287733 5e-06)
(0.005425 0.00018287733 5e-06)
(0.005475 0.00018287733 5e-06)
(0.005525 0.00018287733 5e-06)
(0.005575 0.00018287733 5e-06)
(0.005625 0.00018287733 5e-06)
(0.005675 0.00018287733 5e-06)
(0.005725 0.00018287733 5e-06)
(0.005775 0.00018287733 5e-06)
(0.005825 0.00018287733 5e-06)
(0.005875 0.00018287733 5e-06)
(0.005925 0.00018287733 5e-06)
(0.005975 0.00018287733 5e-06)
(0.006025 0.00018287733 5e-06)
(0.006075 0.00018287733 5e-06)
(0.006125 0.00018287733 5e-06)
(0.006175 0.00018287733 5e-06)
(0.006225 0.00018287733 5e-06)
(0.006275 0.00018287733 5e-06)
(0.006325 0.00018287733 5e-06)
(0.006375 0.00018287733 5e-06)
(0.006425 0.00018287733 5e-06)
(0.006475 0.00018287733 5e-06)
(0.006525 0.00018287733 5e-06)
(0.006575 0.00018287733 5e-06)
(0.006625 0.00018287733 5e-06)
(0.006675 0.00018287733 5e-06)
(0.006725 0.00018287733 5e-06)
(0.006775 0.00018287733 5e-06)
(0.006825 0.00018287733 5e-06)
(0.006875 0.00018287733 5e-06)
(0.006925 0.00018287733 5e-06)
(0.006975 0.00018287733 5e-06)
(0.007025 0.00018287733 5e-06)
(0.007075 0.00018287733 5e-06)
(0.007125 0.00018287733 5e-06)
(0.007175 0.00018287733 5e-06)
(0.007225 0.00018287733 5e-06)
(0.007275 0.00018287733 5e-06)
(0.007325 0.00018287733 5e-06)
(0.007375 0.00018287733 5e-06)
(0.007425 0.00018287733 5e-06)
(0.007475 0.00018287733 5e-06)
(0.007525 0.00018287733 5e-06)
(0.007575 0.00018287733 5e-06)
(0.007625 0.00018287733 5e-06)
(0.007675 0.00018287733 5e-06)
(0.007725 0.00018287733 5e-06)
(0.007775 0.00018287733 5e-06)
(0.007825 0.00018287733 5e-06)
(0.007875 0.00018287733 5e-06)
(0.007925 0.00018287733 5e-06)
(0.007975 0.00018287733 5e-06)
(0.008025 0.00018287733 5e-06)
(0.008075 0.00018287733 5e-06)
(0.008125 0.00018287733 5e-06)
(0.008175 0.00018287733 5e-06)
(0.008225 0.00018287733 5e-06)
(0.008275 0.00018287733 5e-06)
(0.008325 0.00018287733 5e-06)
(0.008375 0.00018287733 5e-06)
(0.008425 0.00018287733 5e-06)
(0.008475 0.00018287733 5e-06)
(0.008525 0.00018287733 5e-06)
(0.008575 0.00018287733 5e-06)
(0.008625 0.00018287733 5e-06)
(0.008675 0.00018287733 5e-06)
(0.008725 0.00018287733 5e-06)
(0.008775 0.00018287733 5e-06)
(0.008825 0.00018287733 5e-06)
(0.008875 0.00018287733 5e-06)
(0.008925 0.00018287733 5e-06)
(0.008975 0.00018287733 5e-06)
(0.009025 0.00018287733 5e-06)
(0.009075 0.00018287733 5e-06)
(0.009125 0.00018287733 5e-06)
(0.009175 0.00018287733 5e-06)
(0.009225 0.00018287733 5e-06)
(0.009275 0.00018287733 5e-06)
(0.009325 0.00018287733 5e-06)
(0.009375 0.00018287733 5e-06)
(0.009425 0.00018287733 5e-06)
(0.009475 0.00018287733 5e-06)
(0.009525 0.00018287733 5e-06)
(0.009575 0.00018287733 5e-06)
(0.009625 0.00018287733 5e-06)
(0.009675 0.00018287733 5e-06)
(0.009725 0.00018287733 5e-06)
(0.009775 0.00018287733 5e-06)
(0.009825 0.00018287733 5e-06)
(0.009875 0.00018287733 5e-06)
(0.009925 0.00018287733 5e-06)
(0.009975 0.00018287733 5e-06)
(2.5e-05 0.000235128 5e-06)
(7.5e-05 0.000235128 5e-06)
(0.000125 0.000235128 5e-06)
(0.000175 0.000235128 5e-06)
(0.000225 0.000235128 5e-06)
(0.000275 0.000235128 5e-06)
(0.000325 0.000235128 5e-06)
(0.000375 0.000235128 5e-06)
(0.000425 0.000235128 5e-06)
(0.000475 0.000235128 5e-06)
(0.000525 0.000235128 5e-06)
(0.000575 0.000235128 5e-06)
(0.000625 0.000235128 5e-06)
(0.000675 0.000235128 5e-06)
(0.000725 0.000235128 5e-06)
(0.000775 0.000235128 5e-06)
(0.000825 0.000235128 5e-06)
(0.000875 0.000235128 5e-06)
(0.000925 0.000235128 5e-06)
(0.000975 0.000235128 5e-06)
(0.001025 0.000235128 5e-06)
(0.001075 0.000235128 5e-06)
(0.001125 0.000235128 5e-06)
(0.001175 0.000235128 5e-06)
(0.001225 0.000235128 5e-06)
(0.001275 0.000235128 5e-06)
(0.001325 0.000235128 5e-06)
(0.001375 0.000235128 5e-06)
(0.001425 0.000235128 5e-06)
(0.001475 0.000235128 5e-06)
(0.001525 0.000235128 5e-06)
(0.001575 0.000235128 5e-06)
(0.001625 0.000235128 5e-06)
(0.001675 0.000235128 5e-06)
(0.001725 0.000235128 5e-06)
(0.001775 0.000235128 5e-06)
(0.001825 0.000235128 5e-06)
(0.001875 0.000235128 5e-06)
(0.001925 0.000235128 5e-06)
(0.001975 0.000235128 5e-06)
(0.002025 0.000235128 5e-06)
(0.002075 0.000235128 5e-06)
(0.002125 0.000235128 5e-06)
(0.002175 0.000235128 5e-06)
(0.002225 0.000235128 5e-06)
(0.002275 0.000235128 5e-06)
(0.002325 0.000235128 5e-06)
(0.002375 0.000235128 5e-06)
(0.002425 0.000235128 5e-06)
(0.002475 0.000235128 5e-06)
(0.002525 0.000235128 5e-06)
(0.002575 0.000235128 5e-06)
(0.002625 0.000235128 5e-06)
(0.002675 0.000235128 5e-06)
(0.002725 0.000235128 5e-06)
(0.002775 0.000235128 5e-06)
(0.002825 0.000235128 5e-06)
(0.002875 0.000235128 5e-06)
(0.002925 0.000235128 5e-06)
(0.002975 0.000235128 5e-06)
(0.003025 0.000235128 5e-06)
(0.003075 0.000235128 5e-06)
(0.003125 0.000235128 5e-06)
(0.003175 0.000235128 5e-06)
(0.003225 0.000235128 5e-06)
(0.003275 0.000235128 5e-06)
(0.003325 0.000235128 5e-06)
(0.003375 0.000235128 5e-06)
(0.003425 0.000235128 5e-06)
(0.003475 0.000235128 5e-06)
(0.003525 0.000235128 5e-06)
(0.003575 0.000235128 5e-06)
(0.003625 0.000235128 5e-06)
(0.003675 0.000235128 5e-06)
(0.003725 0.000235128 5e-06)
(0.003775 0.000235128 5e-06)
(0.003825 0.000235128 5e-06)
(0.003875 0.000235128 5e-06)
(0.003925 0.000235128 5e-06)
(0.003975 0.000235128 5e-06)
(0.004025 0.000235128 5e-06)
(0.004075 0.000235128 5e-06)
(0.004125 0.000235128 5e-06)
(0.004175 0.000235128 5e-06)
(0.004225 0.000235128 5e-06)
(0.004275 0.000235128 5e-06)
(0.004325 0.000235128 5e-06)
(0.004375 0.000235128 5e-06)
(0.004425 0.000235128 5e-06)
(0.004475 0.000235128 5e-06)
(0.004525 0.000235128 5e-06)
(0.004575 0.000235128 5e-06)
(0.004625 0.000235128 5e-06)
(0.004675 0.000235128 5e-06)
(0.004725 0.000235128 5e-06)
(0.004775 0.000235128 5e-06)
(0.004825 0.000235128 5e-06)
(0.004875 0.000235128 5e-06)
(0.004925 0.000235128 5e-06)
(0.004975 0.000235128 5e-06)
(0.005025 0.000235128 5e-06)
(0.005075 0.000235128 5e-06)
(0.005125 0.000235128 5e-06)
(0.005175 0.000235128 5e-06)
(0.005225 0.000235128 5e-06)
(0.005275 0.000235128 5e-06)
(0.005325 0.000235128 5e-06)
(0.005375 0.000235128 5e-06)
(0.005425 0.000235128 5e-06)
(0.005475 0.000235128 5e-06)
(0.005525 0.000235128 5e-06)
(0.005575 0.000235128 5e-06)
(0.005625 0.000235128 5e-06)
(0.005675 0.000235128 5e-06)
(0.005725 0.000235128 5e-06)
(0.005775 0.000235128 5e-06)
(0.005825 0.000235128 5e-06)
(0.005875 0.000235128 5e-06)
(0.005925 0.000235128 5e-06)
(0.005975 0.000235128 5e-06)
(0.006025 0.000235128 5e-06)
(0.006075 0.000235128 5e-06)
(0.006125 0.000235128 5e-06)
(0.006175 0.000235128 5e-06)
(0.006225 0.000235128 5e-06)
(0.006275 0.000235128 5e-06)
(0.006325 0.000235128 5e-06)
(0.006375 0.000235128 5e-06)
(0.006425 0.000235128 5e-06)
(0.006475 0.000235128 5e-06)
(0.006525 0.000235128 5e-06)
(0.006575 0.000235128 5e-06)
(0.006625 0.000235128 5e-06)
(0.006675 0.000235128 5e-06)
(0.006725 0.000235128 5e-06)
(0.006775 0.000235128 5e-06)
(0.006825 0.000235128 5e-06)
(0.006875 0.000235128 5e-06)
(0.006925 0.000235128 5e-06)
(0.006975 0.000235128 5e-06)
(0.007025 0.000235128 5e-06)
(0.007075 0.000235128 5e-06)
(0.007125 0.000235128 5e-06)
(0.007175 0.000235128 5e-06)
(0.007225 0.000235128 5e-06)
(0.007275 0.000235128 5e-06)
(0.007325 0.000235128 5e-06)
(0.007375 0.000235128 5e-06)
(0.007425 0.000235128 5e-06)
(0.007475 0.000235128 5e-06)
(0.007525 0.000235128 5e-06)
(0.007575 0.000235128 5e-06)
(0.007625 0.000235128 5e-06)
(0.007675 0.000235128 5e-06)
(0.007725 0.000235128 5e-06)
(0.007775 0.000235128 5e-06)
(0.007825 0.000235128 5e-06)
(0.007875 0.000235128 5e-06)
(0.007925 0.000235128 5e-06)
(0.007975 0.000235128 5e-06)
(0.008025 0.000235128 5e-06)
(0.008075 0.000235128 5e-06)
(0.008125 0.000235128 5e-06)
(0.008175 0.000235128 5e-06)
(0.008225 0.000235128 5e-06)
(0.008275 0.000235128 5e-06)
(0.008325 0.000235128 5e-06)
(0.008375 0.000235128 5e-06)
(0.008425 0.000235128 5e-06)