/*--------------------------------*- C++ -*----------------------------------*\
| =========                 |                                                 |
| \\      /  F ield         | OpenFOAM: The Open Source CFD Toolbox           |
|  \\    /   O peration     | Version:  2406                                  |
|   \\  /    A nd           | Website:  www.openfoam.com                      |
|    \\/     M anipulation  |                                                 |
\*---------------------------------------------------------------------------*/
FoamFile
{
    version     2.0;
    format      ascii;
    arch        "LSB;label=32;scalar=64";
    class       volScalarField;
    location    "2000";
    object      p;
}
// * * * * * * * * * * * * * * * * * * * * * * * * * * * * * * * * * * * * * //

dimensions      [0 2 -2 0 0 0 0];

internalField   nonuniform List<scalar> 
11400
(
-0.00098656931
-0.00098773698
-0.00098625194
-0.00098150676
-0.00097448714
-0.00096620704
-0.00095749664
-0.00094896134
-0.00094098639
-0.00093377599
-0.00092740303
-0.0009218547
-0.00091706837
-0.00091295744
-0.00090942847
-0.00090639153
-0.00090376564
-0.00090148108
-0.00089947967
-0.00089771395
-0.00089614578
-0.00089474485
-0.00089348712
-0.00089235352
-0.00089132873
-0.00089040026
-0.0008895577
-0.0008887921
-0.00088809555
-0.00088746086
-0.00088688132
-0.00088635061
-0.00088586265
-0.00088541161
-0.00088499184
-0.00088459795
-0.00088422476
-0.00088386733
-0.00088352101
-0.00088318141
-0.00088284444
-0.00088250629
-0.00088216345
-0.00088181267
-0.00088145097
-0.00088107561
-0.00088068409
-0.00088027409
-0.00087984348
-0.00087939029
-0.00087891267
-0.00087840893
-0.00087787742
-0.00087731663
-0.00087672507
-0.00087610133
-0.00087544405
-0.00087475188
-0.00087402352
-0.00087325769
-0.00087245312
-0.00087160853
-0.0008707227
-0.00086979436
-0.00086882228
-0.00086780521
-0.00086674191
-0.00086563113
-0.00086447164
-0.00086326216
-0.00086200146
-0.00086068825
-0.00085932128
-0.00085789927
-0.00085642091
-0.00085488493
-0.00085329
-0.00085163482
-0.00084991804
-0.00084813831
-0.00084629428
-0.00084438457
-0.00084240776
-0.00084036245
-0.00083824719
-0.00083606051
-0.00083380091
-0.00083146689
-0.00082905687
-0.00082656928
-0.0008240025
-0.00082135486
-0.00081862466
-0.00081581016
-0.00081290956
-0.00080992103
-0.00080684266
-0.0008036725
-0.00080040855
-0.00079704872
-0.00079359088
-0.00079003282
-0.00078637225
-0.00078260683
-0.00077873411
-0.00077475157
-0.00077065662
-0.00076644658
-0.00076211866
-0.00075767
-0.00075309765
-0.00074839856
-0.0007435696
-0.00073860753
-0.00073350903
-0.0007282707
-0.00072288904
-0.00071736046
-0.00071168132
-0.00070584789
-0.00069985637
-0.00069370292
-0.00068738364
-0.00068089459
-0.00067423183
-0.00066739139
-0.00066036931
-0.00065316166
-0.00064576457
-0.0006381742
-0.00063038684
-0.00062239889
-0.00061420687
-0.0006058075
-0.00059719771
-0.00058837465
-0.00057933579
-0.00057007887
-0.00056060202
-0.00055090376
-0.00054098306
-0.00053083936
-0.00052047266
-0.00050988351
-0.00049907311
-0.00048804332
-0.00047679672
-0.00046533667
-0.00045366733
-0.00044179371
-0.00042972172
-0.00041745821
-0.00040501101
-0.00039238893
-0.00037960183
-0.00036666062
-0.00035357729
-0.00034036492
-0.00032703768
-0.00031361085
-0.0003001008
-0.00028652498
-0.00027290192
-0.00025925118
-0.00024559334
-0.00023194995
-0.00021834348
-0.00020479728
-0.00019133552
-0.00017798313
-0.00016476572
-0.00015170951
-0.00013884126
-0.0001261882
-0.00011377794
-0.00010163838
-8.9797652e-05
-7.8284039e-05
-6.7125897e-05
-5.6351594e-05
-4.5989455e-05
-3.6067717e-05
-2.6614495e-05
-1.7657776e-05
-9.2254155e-06
-1.3451994e-06
5.9550804e-06
1.2647617e-05
1.8703837e-05
2.4093864e-05
2.8785978e-05
3.2744526e-05
3.592639e-05
3.8274866e-05
3.970752e-05
4.0076334e-05
3.9086064e-05
3.6484362e-05
3.2560095e-05
2.0613259e-05
-0.00098517341
-0.00098644061
-0.00098504385
-0.00098052727
-0.00097393723
-0.00096615905
-0.00095790146
-0.00094970577
-0.00094193972
-0.00093481781
-0.00092843651
-0.00092281018
-0.00091790153
-0.000913645
-0.00090996321
-0.00090677759
-0.0009040145
-0.0009016083
-0.00089950255
-0.00089764983
-0.00089601097
-0.00089455395
-0.00089325272
-0.00089208607
-0.00089103666
-0.00089009012
-0.0008892344
-0.00088845915
-0.00088775531
-0.00088711481
-0.00088653024
-0.00088599477
-0.00088550198
-0.00088504583
-0.00088462057
-0.00088422075
-0.00088384122
-0.00088347711
-0.00088312382
-0.00088277708
-0.00088243287
-0.00088208748
-0.00088173745
-0.00088137962
-0.00088101104
-0.00088062903
-0.00088023109
-0.00087981494
-0.00087937845
-0.00087891964
-0.00087843669
-0.00087792785
-0.00087739151
-0.0008768261
-0.00087623015
-0.00087560222
-0.00087494093
-0.00087424494
-0.00087351292
-0.00087274357
-0.00087193563
-0.00087108781
-0.00087019886
-0.00086926753
-0.00086829256
-0.00086727272
-0.00086620675
-0.00086509339
-0.00086393141
-0.00086271954
-0.00086145653
-0.0008601411
-0.00085877198
-0.00085734788
-0.00085586753
-0.00085432961
-0.00085273281
-0.00085107582
-0.00084935729
-0.00084757587
-0.00084573019
-0.00084381888
-0.00084184052
-0.0008397937
-0.00083767696
-0.00083548884
-0.00083322783
-0.00083089243
-0.00082848106
-0.00082599214
-0.00082342405
-0.00082077513
-0.00081804367
-0.00081522793
-0.00081232612
-0.0008093364
-0.00080625687
-0.00080308558
-0.00079982054
-0.00079645967
-0.00079300085
-0.00078944186
-0.00078578045
-0.00078201426
-0.00077814088
-0.00077415782
-0.00077006248
-0.0007658522
-0.00076152425
-0.00075707577
-0.00075250385
-0.00074780547
-0.00074297753
-0.00073801684
-0.00073292013
-0.00072768402
-0.00072230507
-0.00071677976
-0.00071110449
-0.00070527559
-0.00069928932
-0.00069314192
-0.00068682954
-0.00068034833
-0.00067369442
-0.00066686391
-0.00065985292
-0.00065265762
-0.0006452742
-0.00063769894
-0.00062992818
-0.00062195842
-0.00061378628
-0.00060540856
-0.00059682227
-0.00058802467
-0.00057901327
-0.00056978593
-0.00056034084
-0.00055067659
-0.00054079222
-0.00053068723
-0.00052036167
-0.00050981616
-0.00049905191
-0.00048807082
-0.00047687551
-0.00046546933
-0.00045385644
-0.00044204184
-0.00043003143
-0.00041783202
-0.00040545138
-0.00039289829
-0.00038018252
-0.0003673149
-0.00035430734
-0.00034117279
-0.00032792532
-0.00031458008
-0.00030115329
-0.00028766227
-0.00027412539
-0.00026056204
-0.00024699264
-0.00023343855
-0.00021992209
-0.00020646643
-0.00019309555
-0.00017983422
-0.00016670787
-0.00015374256
-0.00014096492
-0.00012840203
-0.00011608137
-0.00010403075
-9.2278218e-05
-8.0852013e-05
-6.9780477e-05
-5.9092008e-05
-4.8815016e-05
-3.8977886e-05
-2.9608973e-05
-2.0736617e-05
-1.2389144e-05
-4.5950284e-06
2.6169535e-06
9.217186e-06
1.5175098e-05
2.0458674e-05
2.5032799e-05
2.88574e-05
3.1884263e-05
3.4052329e-05
3.5279325e-05
3.5431933e-05
3.4278105e-05
3.1777554e-05
2.8791568e-05
1.961098e-05
-0.00098722526
-0.00098826063
-0.00098641285
-0.00098141598
-0.0009745465
-0.00096666123
-0.00095838968
-0.00095021169
-0.00094245717
-0.00093532262
-0.00092890001
-0.00092320713
-0.00091821366
-0.00091386191
-0.00091008176
-0.00090680048
-0.00090394868
-0.00090146352
-0.00089929
-0.00089738113
-0.00089569731
-0.00089420556
-0.00089287855
-0.00089169366
-0.00089063211
-0.00088967818
-0.00088881857
-0.00088804187
-0.00088733813
-0.00088669852
-0.0008861151
-0.00088558062
-0.00088508838
-0.00088463216
-0.00088420612
-0.0008838048
-0.00088342308
-0.00088305613
-0.00088269946
-0.00088234888
-0.00088200048
-0.00088165063
-0.00088129599
-0.00088093345
-0.00088056015
-0.00088017346
-0.00087977093
-0.0008793503
-0.00087890948
-0.00087844652
-0.00087795958
-0.00087744694
-0.00087690697
-0.00087633812
-0.0008757389
-0.00087510787
-0.00087444365
-0.00087374489
-0.00087301024
-0.00087223842
-0.00087142813
-0.00087057809
-0.00086968705
-0.00086875375
-0.00086777693
-0.00086675535
-0.00086568774
-0.00086457285
-0.00086340944
-0.00086219624
-0.00086093199
-0.00085961541
-0.00085824523
-0.00085682017
-0.00085533893
-0.0008538002
-0.00085220268
-0.00085054504
-0.00084882593
-0.00084704401
-0.0008451979
-0.00084328621
-0.00084130755
-0.00083926049
-0.00083714357
-0.00083495533
-0.00083269426
-0.00083035885
-0.00082794754
-0.00082545873
-0.00082289081
-0.00082024212
-0.00081751095
-0.00081469557
-0.00081179419
-0.00080880497
-0.00080572603
-0.00080255542
-0.00079929115
-0.00079593117
-0.00079247334
-0.00078891549
-0.00078525536
-0.00078149063
-0.00077761889
-0.00077363766
-0.0007695444
-0.00076533645
-0.00076101111
-0.00075656556
-0.00075199692
-0.0007473022
-0.00074247835
-0.00073752221
-0.00073243055
-0.00072720005
-0.00072182732
-0.00071630888
-0.00071064119
-0.00070482064
-0.00069884356
-0.00069270623
-0.00068640488
-0.00067993572
-0.00067329493
-0.00066647871
-0.00065948325
-0.00065230476
-0.00064493952
-0.00063738387
-0.00062963423
-0.00062168717
-0.00061353936
-0.00060518769
-0.00059662921
-0.00058786124
-0.00057888136
-0.00056968747
-0.0005602778
-0.00055065099
-0.00054080609
-0.00053074266
-0.00052046074
-0.00050996097
-0.00049924456
-0.00048831342
-0.00047717012
-0.00046581799
-0.00045426116
-0.00044250459
-0.00043055413
-0.00041841652
-0.00040609948
-0.00039361167
-0.0003809628
-0.00036816359
-0.00035522583
-0.00034216238
-0.00032898717
-0.00031571524
-0.00030236267
-0.00028894665
-0.0002754854
-0.00026199819
-0.00024850529
-0.00023502794
-0.00022158831
-0.00020820943
-0.00019491518
-0.00018173019
-0.00016867979
-0.00015578994
-0.00014308717
-0.00013059849
-0.00011835132
-0.00010637343
-9.4692857e-05
-8.3337838e-05
-7.2336753e-05
-6.1718073e-05
-5.1510326e-05
-4.1742078e-05
-3.2441946e-05
-2.3638629e-05
-1.536096e-05
-7.6380359e-06
-4.9939152e-07
6.0246374e-06
1.1902434e-05
1.710035e-05
2.1581589e-05
2.5304609e-05
2.8220783e-05
3.0271788e-05
3.1386619e-05
3.146335e-05
3.032914e-05
2.8049937e-05
2.6018641e-05
2.0012028e-05
-0.00099501438
-0.00099472968
-0.00099125152
-0.00098465487
-0.00097651077
-0.00096771436
-0.00095883712
-0.00095027909
-0.00094229839
-0.00093503525
-0.00092854151
-0.00092280846
-0.00091778961
-0.00091341849
-0.00090962105
-0.00090632339
-0.00090345636
-0.00090095784
-0.00089877363
-0.00089685724
-0.00089516934
-0.00089367693
-0.00089235241
-0.00089117276
-0.00089011865
-0.00088917382
-0.00088832438
-0.00088755841
-0.00088686548
-0.00088623639
-0.00088566288
-0.00088513749
-0.00088465335
-0.00088420416
-0.00088378405
-0.00088338757
-0.00088300965
-0.00088264553
-0.00088229083
-0.00088194145
-0.00088159358
-0.00088124371
-0.00088088858
-0.0008805252
-0.00088015078
-0.00087976277
-0.00087935878
-0.00087893661
-0.00087849421
-0.00087802967
-0.00087754119
-0.00087702706
-0.00087648568
-0.00087591551
-0.00087531506
-0.00087468292
-0.00087401768
-0.00087331801
-0.00087258257
-0.00087181006
-0.00087099919
-0.00087014869
-0.00086925729
-0.00086832374
-0.00086734677
-0.00086632514
-0.00086525759
-0.00086414286
-0.0008629797
-0.00086176685
-0.00086050305
-0.00085918701
-0.00085781746
-0.00085639313
-0.0008549127
-0.00085337488
-0.00085177834
-0.00085012178
-0.00084840383
-0.00084662315
-0.00084477837
-0.00084286811
-0.00084089094
-0.00083884546
-0.00083673021
-0.00083454372
-0.00083228449
-0.00082995101
-0.00082754172
-0.00082505503
-0.00082248933
-0.00081984296
-0.00081711423
-0.0008143014
-0.00081140269
-0.00080841628
-0.00080534028
-0.00080217278
-0.00079891179
-0.00079555526
-0.00079210109
-0.0007885471
-0.00078489108
-0.0007811307
-0.00077726359
-0.0007732873
-0.0007691993
-0.00076499697
-0.00076067763
-0.0007562385
-0.00075167672
-0.00074698936
-0.00074217339
-0.0007372257
-0.00073214309
-0.00072692229
-0.00072155995
-0.00071605265
-0.00071039688
-0.00070458908
-0.00069862564
-0.00069250287
-0.00068621708
-0.00067976451
-0.00067314139
-0.00066634397
-0.00065936848
-0.00065221119
-0.00064486842
-0.00063733655
-0.00062961204
-0.00062169148
-0.00061357159
-0.00060524927
-0.00059672162
-0.00058798594
-0.00057903984
-0.00056988122
-0.00056050831
-0.00055091974
-0.00054111455
-0.00053109226
-0.0005208529
-0.00051039705
-0.0004997259
-0.00048884126
-0.00047774565
-0.00046644234
-0.0004549354
-0.00044322973
-0.00043133105
-0.00041924605
-0.00040698231
-0.00039454843
-0.00038195399
-0.00036920962
-0.00035632701
-0.0003433189
-0.00033019913
-0.00031698262
-0.00030368537
-0.00029032447
-0.00027691805
-0.00026348529
-0.00025004638
-0.0002366225
-0.00022323575
-0.00020990911
-0.00019666642
-0.00018353226
-0.00017053196
-0.00015769146
-0.00014503729
-0.00013259648
-0.00012039647
-0.00010846508
-9.6830393e-05
-8.5520723e-05
-7.4564546e-05
-6.3990452e-05
-5.3827135e-05
-4.4103327e-05
-3.4847911e-05
-2.6089553e-05
-1.7857205e-05
-1.018039e-05
-3.0888675e-06
3.3867304e-06
9.2146476e-06
1.4361446e-05
1.879132e-05
2.2465245e-05
2.5340032e-05
2.7368126e-05
2.8499181e-05
2.8671052e-05
2.7773999e-05
2.5938683e-05
2.4750648e-05
2.0943692e-05
-0.0010103922
-0.0010064905
-0.00099935642
-0.00098967249
-0.00097920961
-0.00096881671
-0.00095891461
-0.00094974198
-0.00094142409
-0.00093400089
-0.00092745345
-0.00092172582
-0.00091674186
-0.00091241756
-0.00090866922
-0.00090541825
-0.00090259379
-0.00090013359
-0.00089798395
-0.00089609918
-0.0008944407
-0.00089297614
-0.00089167834
-0.0008905245
-0.00088949539
-0.00088857471
-0.00088774848
-0.00088700463
-0.00088633261
-0.00088572309
-0.0008851677
-0.00088465889
-0.00088418979
-0.00088375406
-0.00088334589
-0.00088295987
-0.00088259102
-0.00088223468
-0.00088188658
-0.00088154272
-0.00088119944
-0.00088085334
-0.00088050127
-0.00088014036
-0.00087976791
-0.00087938146
-0.00087897871
-0.00087855754
-0.00087811596
-0.0008776521
-0.00087716421
-0.00087665064
-0.0008761098
-0.00087554017
-0.0008749403
-0.00087430878
-0.00087364423
-0.0008729453
-0.0008722107
-0.0008714391
-0.00087062924
-0.00086977984
-0.00086888963
-0.00086795736
-0.00086698177
-0.00086596161
-0.00086489563
-0.00086378257
-0.00086262118
-0.00086141019
-0.00086014834
-0.00085883435
-0.00085746696
-0.00085604486
-0.00085456677
-0.00085303139
-0.00085143738
-0.00084978344
-0.00084806821
-0.00084629035
-0.00084444849
-0.00084254123
-0.00084056718
-0.00083852492
-0.00083641299
-0.00083422993
-0.00083197424
-0.00082964442
-0.00082723891
-0.00082475613
-0.00082219448
-0.0008195523
-0.00081682791
-0.00081401959
-0.00081112556
-0.00080814402
-0.0008050731
-0.00080191088
-0.00079865541
-0.00079530465
-0.00079185652
-0.00078830887
-0.00078465949
-0.0007809061
-0.00077704635
-0.00077307782
-0.00076899799
-0.0007648043
-0.00076049408
-0.0007560646
-0.00075151304
-0.00074683649
-0.00074203197
-0.0007370964
-0.00073202664
-0.00072681946
-0.00072147154
-0.0007159795
-0.00071033989
-0.00070454919
-0.00069860382
-0.00069250015
-0.00068623451
-0.00067980319
-0.00067320247
-0.00066642861
-0.00065947788
-0.00065234659
-0.00064503106
-0.00063752771
-0.00062983301
-0.00062194355
-0.00061385607
-0.00060556745
-0.00059707478
-0.00058837537
-0.00057946678
-0.00057034688
-0.00056101386
-0.00055146632
-0.00054170324
-0.00053172409
-0.00052152881
-0.00051111789
-0.00050049241
-0.00048965412
-0.00047860549
-0.00046734969
-0.00045589066
-0.00044423319
-0.00043238291
-0.00042034638
-0.00040813109
-0.00039574551
-0.00038319914
-0.00037050249
-0.00035766715
-0.00034470578
-0.00033163212
-0.00031846102
-0.0003052084
-0.0002918913
-0.00027852779
-0.00026513703
-0.00025173916
-0.00023835536
-0.00022500771
-0.00021171921
-0.00019851372
-0.00018541586
-0.00017245099
-0.00015964511
-0.00014702482
-0.00013461722
-0.00012244985
-0.00011055062
-9.894773e-05
-8.7669618e-05
-7.6744903e-05
-6.6202316e-05
-5.6070784e-05
-4.6378804e-05
-3.7155191e-05
-2.8429244e-05
-2.0229953e-05
-1.2586676e-05
-5.5290878e-06
9.1259011e-07
6.707393e-06
1.1823379e-05
1.6227438e-05
1.9885249e-05
2.2761607e-05
2.4822018e-05
2.6036899e-05
2.6378178e-05
2.5785526e-05
2.4416825e-05
2.3852665e-05
2.1751982e-05
-0.0010354864
-0.0010238982
-0.0010099885
-0.00099540566
-0.00098163317
-0.00096917238
-0.00095807167
-0.00094826448
-0.00093966058
-0.00093215727
-0.0009256435
-0.00092000625
-0.00091513575
-0.00091092923
-0.00090729336
-0.00090414532
-0.00090141297
-0.00089903444
-0.00089695719
-0.00089513687
-0.00089353626
-0.00089212413
-0.00089087425
-0.00088976455
-0.00088877631
-0.0008878936
-0.00088710269
-0.00088639169
-0.00088575013
-0.00088516875
-0.00088463925
-0.00088415416
-0.00088370664
-0.00088329046
-0.00088289988
-0.00088252961
-0.00088217476
-0.00088183084
-0.00088149367
-0.00088115942
-0.00088082455
-0.0008804858
-0.00088014016
-0.00087978486
-0.00087941735
-0.00087903525
-0.00087863638
-0.00087821869
-0.00087778027
-0.00087731933
-0.00087683417
-0.00087632318
-0.00087578483
-0.00087521763
-0.00087462016
-0.00087399102
-0.00087332888
-0.00087263239
-0.00087190026
-0.0008711312
-0.00087032394
-0.00086947721
-0.00086858975
-0.0008676603
-0.00086668763
-0.00086567047
-0.00086460758
-0.0008634977
-0.00086233959
-0.00086113196
-0.00085987357
-0.00085856315
-0.0008571994
-0.00085578105
-0.00085430681
-0.00085277537
-0.00085118541
-0.00084953561
-0.00084782463
-0.00084605112
-0.00084421371
-0.00084231103
-0.00084034166
-0.00083830419
-0.00083619718
-0.00083401917
-0.00083176868
-0.00082944418
-0.00082704415
-0.000824567
-0.00082201115
-0.00081937495
-0.00081665674
-0.00081385479
-0.00081096737
-0.00080799266
-0.00080492883
-0.00080177398
-0.00079852617
-0.00079518339
-0.00079174358
-0.00078820463
-0.00078456434
-0.00078082046
-0.00077697068
-0.0007730126
-0.00076894375
-0.00076476159
-0.0007604635
-0.00075604678
-0.00075150865
-0.00074684624
-0.00074205661
-0.00073713673
-0.0007320835
-0.00072689371
-0.00072156411
-0.00071609136
-0.00071047203
-0.00070470265
-0.00069877967
-0.0006926995
-0.00068645851
-0.000680053
-0.00067347929
-0.00066673365
-0.00065981238
-0.00065271179
-0.00064542821
-0.00063795804
-0.00063029777
-0.00062244396
-0.00061439334
-0.00060614274
-0.00059768924
-0.00058903007
-0.00058016276
-0.00057108512
-0.00056179527
-0.00055229171
-0.00054257337
-0.00053263957
-0.00052249014
-0.00051212546
-0.00050154658
-0.00049075513
-0.00047975345
-0.00046854457
-0.00045713232
-0.00044552137
-0.00043371722
-0.00042172632
-0.00040955605
-0.00039721478
-0.00038471189
-0.00037205781
-0.00035926405
-0.00034634319
-0.00033330892
-0.00032017603
-0.00030696043
-0.0002936791
-0.00028035014
-0.00026699269
-0.00025362694
-0.00024027408
-0.00022695625
-0.00021369654
-0.00020051885
-0.00018744791
-0.00017450917
-0.00016172876
-0.00014913338
-0.00013675028
-0.00012460712
-0.00011273197
-0.00010115319
-8.9899368e-05
-7.8999261e-05
-6.8481297e-05
-5.8374371e-05
-4.8707723e-05
-3.9510147e-05
-3.081056e-05
-2.2637871e-05
-1.5021071e-05
-7.9892548e-06
-1.5716624e-06
4.2023047e-06
9.3031662e-06
1.3701628e-05
1.7369206e-05
2.027945e-05
2.2410546e-05
2.3750467e-05
2.4296409e-05
2.4021388e-05
2.3085417e-05
2.2953394e-05
2.2307182e-05
-0.0010783497
-0.0010484819
-0.0010213408
-0.00099991155
-0.0009822997
-0.00096775847
-0.0009556896
-0.00094553037
-0.0009368931
-0.00092951268
-0.0009231883
-0.00091775879
-0.00091309051
-0.00090907017
-0.0009056007
-0.00090259929
-0.00089999562
-0.00089773003
-0.00089575227
-0.00089402014
-0.00089249829
-0.00089115703
-0.0008899714
-0.0008889203
-0.00088798579
-0.0008871525
-0.00088640717
-0.00088573822
-0.00088513546
-0.00088458981
-0.00088409315
-0.00088363815
-0.00088321814
-0.000882827
-0.00088245913
-0.0008821094
-0.00088177307
-0.00088144578
-0.00088112353
-0.00088080263
-0.00088047971
-0.00088015164
-0.00087981557
-0.00087946887
-0.0008791091
-0.00087873402
-0.00087834155
-0.00087792974
-0.00087749677
-0.00087704093
-0.00087656059
-0.00087605419
-0.00087552025
-0.00087495735
-0.00087436408
-0.0008737391
-0.00087308107
-0.0008723887
-0.0008716607
-0.00087089579
-0.00087009272
-0.00086925022
-0.00086836706
-0.00086744198
-0.00086647374
-0.00086546109
-0.00086440279
-0.00086329758
-0.00086214421
-0.00086094143
-0.00085968797
-0.00085838256
-0.00085702393
-0.00085561078
-0.00085414184
-0.00085261579
-0.00085103133
-0.00084938713
-0.00084768186
-0.00084591416
-0.00084408268
-0.00084218604
-0.00084022284
-0.00083819166
-0.00083609109
-0.00083391965
-0.00083167588
-0.00082935827
-0.00082696529
-0.00082449539
-0.00082194697
-0.00081931842
-0.00081660808
-0.00081381426
-0.00081093521
-0.00080796917
-0.00080491431
-0.00080176877
-0.00079853061
-0.00079519786
-0.0007917685
-0.00078824042
-0.00078461149
-0.00078087947
-0.00077704208
-0.00077309697
-0.0007690417
-0.00076487378
-0.00076059062
-0.00075618956
-0.00075166787
-0.00074702271
-0.0007422512
-0.00073735033
-0.00073231705
-0.00072714821
-0.00072184057
-0.00071639084
-0.00071079563
-0.00070505149
-0.00069915493
-0.00069310236
-0.00068689016
-0.00068051469
-0.00067397225
-0.00066725913
-0.00066037162
-0.00065330602
-0.00064605867
-0.00063862594
-0.00063100428
-0.00062319023
-0.00061518045
-0.00060697175
-0.0005985611
-0.00058994571
-0.00058112301
-0.0005720907
-0.00056284684
-0.00055338979
-0.0005437183
-0.00053383159
-0.00052372945
-0.00051341218
-0.00050288065
-0.00049213635
-0.00048118147
-0.00047001893
-0.00045865242
-0.00044708648
-0.00043532651
-0.00042337883
-0.00041125072
-0.00039895045
-0.00038648733
-0.00037387171
-0.00036111503
-0.00034822985
-0.00033522983
-0.00032212973
-0.00030894547
-0.00029569407
-0.00028239364
-0.0002690634
-0.0002557236
-0.00024239552
-0.00022910141
-0.00021586445
-0.00020270869
-0.00018965898
-0.00017674094
-0.00016398084
-0.00015140556
-0.00013904252
-0.00012691955
-0.0001150649
-0.00010350677
-9.2273659e-05
-8.139466e-05
-7.0898707e-05
-6.0814634e-05
-5.1171271e-05
-4.199734e-05
-3.332147e-05
-2.517214e-05
-1.7577648e-05
-1.0566051e-05
-4.1650697e-06
1.5980992e-06
6.697134e-06
1.1107214e-05
1.4806083e-05
1.7775777e-05
2.0005548e-05
2.1496876e-05
2.226413e-05
2.2301196e-05
2.1759267e-05
2.191683e-05
2.257649e-05
-0.0011909078
-0.0010918313
-0.0010327325
-0.0010014607
-0.00097989574
-0.00096381334
-0.00095146927
-0.00094154171
-0.00093328837
-0.00092630854
-0.00092035075
-0.00091523895
-0.00091083961
-0.00090704562
-0.00090376797
-0.00090093067
-0.00089846868
-0.0008963268
-0.0008944583
-0.00089282369
-0.00089138969
-0.00089012819
-0.00088901544
-0.00088803126
-0.00088715842
-0.0008863821
-0.00088568944
-0.00088506921
-0.00088451148
-0.00088400743
-0.00088354908
-0.0008831293
-0.00088274159
-0.00088238002
-0.00088203913
-0.00088171397
-0.00088139995
-0.0008810929
-0.00088078897
-0.00088048467
-0.00088017675
-0.00087986228
-0.00087953855
-0.00087920308
-0.00087885357
-0.00087848791
-0.00087810413
-0.0008777004
-0.00087727498
-0.00087682626
-0.00087635268
-0.00087585275
-0.00087532506
-0.00087476821
-0.00087418086
-0.0008735617
-0.00087290942
-0.00087222276
-0.00087150044
-0.00087074122
-0.00086994385
-0.00086910709
-0.00086822969
-0.00086731042
-0.00086634805
-0.00086534133
-0.00086428902
-0.00086318987
-0.00086204264
-0.00086084608
-0.00085959891
-0.00085829987
-0.00085694769
-0.0008555411
-0.00085407879
-0.00085255947
-0.00085098183
-0.00084934455
-0.0008476463
-0.00084588574
-0.00084406151
-0.00084217223
-0.00084021653
-0.00083819298
-0.00083610018
-0.00083393667
-0.00083170099
-0.00082939164
-0.00082700712
-0.00082454588
-0.00082200634
-0.00081938691
-0.00081668595
-0.00081390178
-0.00081103269
-0.00080807692
-0.00080503269
-0.00080189815
-0.0007986714
-0.0007953505
-0.00079193345
-0.0007884182
-0.00078480262
-0.00078108453
-0.00077726169
-0.00077333178
-0.00076929242
-0.00076514113
-0.00076087539
-0.00075649257
-0.00075198998
-0.00074736484
-0.00074261429
-0.00073773538
-0.00073272509
-0.00072758031
-0.00072229785
-0.00071687443
-0.00071130671
-0.00070559127
-0.00069972461
-0.00069370319
-0.00068752341
-0.0006811816
-0.00067467408
-0.00066799713
-0.00066114704
-0.00065412007
-0.00064691253
-0.00063952075
-0.00063194113
-0.00062417017
-0.00061620444
-0.00060804068
-0.00059967581
-0.00059110692
-0.00058233133
-0.00057334661
-0.00056415064
-0.00055474165
-0.00054511836
-0.00053527993
-0.00052522596
-0.00051495658
-0.00050447252
-0.00049377513
-0.00048286646
-0.0004717493
-0.00046042723
-0.00044890465
-0.00043718686
-0.00042528008
-0.0004131915
-0.00040092932
-0.00038850279
-0.00037592222
-0.00036319903
-0.00035034575
-0.00033737606
-0.00032430476
-0.0003111478
-0.00029792228
-0.00028464639
-0.00027133943
-0.00025802179
-0.00024471487
-0.00023144107
-0.00021822372
-0.00020508704
-0.00019205607
-0.00017915661
-0.00016641512
-0.00015385866
-0.00014151459
-0.0001294107
-0.00011757555
-0.0001060378
-9.4826142e-05
-8.3969391e-05
-7.349635e-05
-6.3435766e-05
-5.3816254e-05
-4.4666214e-05
-3.6013763e-05
-2.7886636e-05
-2.0312087e-05
-1.3316722e-05
-6.9262838e-06
-1.1652844e-06
3.943539e-06
8.3800902e-06
1.2128199e-05
1.5177508e-05
1.7526268e-05
1.9185604e-05
2.018071e-05
2.0517769e-05
2.0338562e-05
2.0686241e-05
2.2555117e-05
-0.0013666329
-0.0011305187
-0.0010322788
-0.00099426481
-0.00097200667
-0.00095682862
-0.00094572816
-0.00093689808
-0.00092949799
-0.0009231531
-0.00091766123
-0.00091289389
-0.00090875579
-0.00090516606
-0.00090205272
-0.00089935205
-0.00089700755
-0.00089496969
-0.00089319536
-0.00089164744
-0.00089029411
-0.00088910817
-0.00088806644
-0.00088714909
-0.00088633911
-0.00088562184
-0.00088498455
-0.00088441611
-0.00088390671
-0.00088344762
-0.000883031
-0.0008826498
-0.00088229768
-0.00088196884
-0.00088165802
-0.00088136037
-0.00088107152
-0.00088078744
-0.00088050447
-0.00088021928
-0.0008799288
-0.00087963027
-0.00087932113
-0.00087899905
-0.00087866189
-0.00087830766
-0.00087793451
-0.00087754073
-0.00087712468
-0.00087668483
-0.00087621971
-0.00087572792
-0.00087520807
-0.00087465885
-0.00087407895
-0.00087346711
-0.00087282204
-0.00087214252
-0.0008714273
-0.00087067515
-0.00086988483
-0.00086905513
-0.00086818482
-0.00086727266
-0.00086631743
-0.0008653179
-0.00086427283
-0.00086318098
-0.0008620411
-0.00086085195
-0.00085961226
-0.00085832078
-0.00085697622
-0.00085557733
-0.0008541228
-0.00085261134
-0.00085104165
-0.00084941242
-0.00084772231
-0.00084597
-0.00084415412
-0.00084227332
-0.00084032622
-0.00083831142
-0.0008362275
-0.00083407303
-0.00083184657
-0.00082954662
-0.00082717171
-0.00082472029
-0.00082219082
-0.00081958172
-0.00081689136
-0.0008141181
-0.00081126025
-0.00080831609
-0.00080528385
-0.00080216171
-0.00079894782
-0.00079564027
-0.00079223708
-0.00078873625
-0.00078513569
-0.00078143326
-0.00077762676
-0.00077371391
-0.00076969236
-0.00076555971
-0.00076131344
-0.000756951
-0.00075246973
-0.00074786689
-0.00074313966
-0.00073828514
-0.00073330034
-0.00072818218
-0.00072292751
-0.00071753308
-0.00071199557
-0.00070631158
-0.00070047763
-0.00069449017
-0.00068834561
-0.00068204029
-0.00067557049
-0.0006689325
-0.00066212254
-0.00065513686
-0.00064797172
-0.00064062339
-0.0006330882
-0.00062536256
-0.00061744299
-0.00060932614
-0.00060100882
-0.00059248801
-0.00058376082
-0.00057482463
-0.00056567734
-0.00055631713
-0.00054674253
-0.0005369525
-0.0005269465
-0.00051672453
-0.00050628715
-0.00049563562
-0.00048477182
-0.00047369845
-0.00046241895
-0.00045093763
-0.00043925969
-0.00042739129
-0.00041533954
-0.00040311261
-0.00039071971
-0.00037817116
-0.00036547837
-0.00035265392
-0.00033971152
-0.00032666606
-0.00031353357
-0.00030033124
-0.00028707741
-0.00027379151
-0.00026049408
-0.0002472067
-0.00023395195
-0.00022075335
-0.00020763531
-0.00019462307
-0.00018174239
-0.00016901985
-0.00015648287
-0.00014415913
-0.00013207673
-0.00012026403
-0.00010874961
-9.7562197e-05
-8.6730515e-05
-7.6283229e-05
-6.6248832e-05
-5.665555e-05
-4.7531227e-05
-3.8903207e-05
-3.0798194e-05
-2.3242066e-05
-1.6259637e-05
-9.8743143e-06
-4.1076296e-06
1.0214538e-06
5.4974971e-06
9.3099401e-06
1.2454884e-05
1.4937541e-05
1.6775466e-05
1.800029e-05
1.8624704e-05
1.8784777e-05
1.9246925e-05
2.2303923e-05
-0.00081318184
-0.00091736589
-0.00095216103
-0.00095579264
-0.0009521674
-0.00094628046
-0.00093960949
-0.00093298079
-0.0009267526
-0.00092105547
-0.00091593287
-0.00091138218
-0.00090737401
-0.00090386618
-0.00090081022
-0.00089815605
-0.00089585492
-0.00089386126
-0.00089213372
-0.00089063552
-0.00088933447
-0.00088820263
-0.00088721596
-0.00088635377
-0.0008855983
-0.00088493427
-0.00088434844
-0.0008838293
-0.00088336677
-0.00088295196
-0.00088257695
-0.00088223462
-0.00088191865
-0.00088162335
-0.00088134351
-0.00088107444
-0.00088081187
-0.00088055195
-0.00088029116
-0.00088002633
-0.00087975456
-0.00087947325
-0.00087917998
-0.00087887259
-0.00087854905
-0.00087820752
-0.00087784627
-0.00087746369
-0.00087705825
-0.00087662849
-0.00087617304
-0.00087569055
-0.00087517971
-0.00087463926
-0.00087406793
-0.00087346449
-0.00087282771
-0.00087215638
-0.00087144928
-0.00087070521
-0.00086992294
-0.00086910127
-0.00086823899
-0.00086733487
-0.0008663877
-0.00086539625
-0.00086435929
-0.00086327559
-0.00086214391
-0.00086096299
-0.00085973158
-0.00085844844
-0.00085711228
-0.00085572184
-0.00085427583
-0.00085277296
-0.00085121193
-0.00084959144
-0.00084791016
-0.00084616677
-0.00084435992
-0.00084248825
-0.0008405504
-0.00083854498
-0.00083647059
-0.0008343258
-0.00083210919
-0.0008298193
-0.00082745463
-0.00082501369
-0.00082249494
-0.00081989682
-0.00081721775
-0.00081445609
-0.00081161019
-0.00080867836
-0.00080565885
-0.00080254989
-0.00079934965
-0.00079605625
-0.00079266777
-0.00078918224
-0.0007855976
-0.00078191176
-0.00077812256
-0.00077422776
-0.00077022507
-0.0007661121
-0.00076188641
-0.00075754546
-0.00075308664
-0.00074850726
-0.00074380454
-0.0007389756
-0.00073401749
-0.00072892716
-0.00072370148
-0.00071833722
-0.00071283108
-0.00070717967
-0.00070137951
-0.00069542706
-0.0006893187
-0.00068305076
-0.00067661951
-0.00067002117
-0.00066325194
-0.00065630802
-0.0006491856
-0.00064188087
-0.0006343901
-0.00062670961
-0.0006188358
-0.00061076517
-0.00060249433
-0.00059402009
-0.0005853397
-0.00057645053
-0.00056735022
-0.00055803675
-0.0005485085
-0.0005387643
-0.00052880348
-0.00051862589
-0.00050823199
-0.00049762288
-0.00048680037
-0.00047576704
-0.00046452624
-0.00045308221
-0.00044144009
-0.00042960599
-0.00041758701
-0.0004053913
-0.00039302809
-0.00038050771
-0.00036784164
-0.00035504253
-0.00034212416
-0.00032910155
-0.00031599084
-0.00030280939