/*--------------------------------*- C++ -*----------------------------------*\
| =========                 |                                                 |
| \\      /  F ield         | OpenFOAM: The Open Source CFD Toolbox           |
|  \\    /   O peration     | Version:  2406                                  |
|   \\  /    A nd           | Website:  www.openfoam.com                      |
|    \\/     M anipulation  |                                                 |
\*---------------------------------------------------------------------------*/
FoamFile
{
    version     2.0;
    format      ascii;
    arch        "LSB;label=32;scalar=64";
    class       volVectorField;
    location    "2000";
    object      U;
}
// * * * * * * * * * * * * * * * * * * * * * * * * * * * * * * * * * * * * * //

dimensions      [0 1 -1 0 0 0 0];

internalField   nonuniform List<vector> 
11400
(
(-1.1625047e-05 1.1283222e-05 0)
(-9.4759028e-05 2.6544672e-05 0)
(-0.00021118182 2.9467113e-05 0)
(-0.00031928499 2.3370838e-05 0)
(-0.00039283894 1.4307953e-05 0)
(-0.00042691918 5.4864543e-06 0)
(-0.00042666628 -1.5610132e-06 0)
(-0.00040102156 -6.4038469e-06 0)
(-0.00035933733 -9.2160533e-06 0)
(-0.00030966017 -1.0420301e-05 0)
(-0.00025811125 -1.0484042e-05 0)
(-0.00020888966 -9.8209247e-06 0)
(-0.00016456163 -8.7555646e-06 0)
(-0.00012643657 -7.521278e-06 0)
(-9.4929548e-05 -6.2725797e-06 0)
(-6.9867197e-05 -5.1026241e-06 0)
(-5.072442e-05 -4.0604684e-06 0)
(-3.6796191e-05 -3.1652069e-06 0)
(-2.7315852e-05 -2.4169729e-06 0)
(-2.153175e-05 -1.8048713e-06 0)
(-1.8752555e-05 -1.312379e-06 0)
(-1.8370866e-05 -9.2097284e-07 0)
(-1.9872113e-05 -6.1234361e-07 0)
(-2.2833803e-05 -3.6958165e-07 0)
(-2.6919088e-05 -1.7786517e-07 0)
(-3.1867269e-05 -2.4684533e-08 0)
(-3.7482837e-05 1.0021343e-07 0)
(-4.3624329e-05 2.0498032e-07 0)
(-5.0193719e-05 2.9589418e-07 0)
(-5.7126766e-05 3.7762455e-07 0)
(-6.4384566e-05 4.53501e-07 0)
(-7.1946388e-05 5.2577149e-07 0)
(-7.9803776e-05 5.9583743e-07 0)
(-8.7955864e-05 6.6446136e-07 0)
(-9.6405766e-05 7.3194503e-07 0)
(-0.00010515793 7.9827805e-07 0)
(-0.0001142163 8.6325783e-07 0)
(-0.00012358314 9.265832e-07 0)
(-0.00013325841 9.8792416e-07 0)
(-0.0001432395 1.0469711e-06 0)
(-0.00015352134 1.1034662e-06 0)
(-0.00016409659 1.1572215e-06 0)
(-0.0001749561 1.2081253e-06 0)
(-0.00018608923 1.2561409e-06 0)
(-0.00019748442 1.3012995e-06 0)
(-0.00020912949 1.3436905e-06 0)
(-0.0002210121 1.3834487e-06 0)
(-0.00023312001 1.4207429e-06 0)
(-0.00024544133 1.4557637e-06 0)
(-0.00025796476 1.4887133e-06 0)
(-0.00027067964 1.5197967e-06 0)
(-0.00028357609 1.5492146e-06 0)
(-0.00029664502 1.5771582e-06 0)
(-0.00030987812 1.6038051e-06 0)
(-0.00032326786 1.6293176e-06 0)
(-0.00033680742 1.6538412e-06 0)
(-0.00035049066 1.6775041e-06 0)
(-0.00036431202 1.7004187e-06 0)
(-0.0003782665 1.7226815e-06 0)
(-0.00039234957 1.7443752e-06 0)
(-0.00040655709 1.7655702e-06 0)
(-0.00042088532 1.7863256e-06 0)
(-0.00043533079 1.8066916e-06 0)
(-0.00044989033 1.8267104e-06 0)
(-0.00046456097 1.8464179e-06 0)
(-0.00047933997 1.8658449e-06 0)
(-0.00049422473 1.8850179e-06 0)
(-0.00050921284 1.9039607e-06 0)
(-0.00052430201 1.9226943e-06 0)
(-0.00053949009 1.9412386e-06 0)
(-0.00055477504 1.9596122e-06 0)
(-0.00057015493 1.9778332e-06 0)
(-0.00058562798 1.9959195e-06 0)
(-0.00060119247 2.0138892e-06 0)
(-0.00061684684 2.0317608e-06 0)
(-0.00063258962 2.0495534e-06 0)
(-0.00064841945 2.0672867e-06 0)
(-0.00066433512 2.0849814e-06 0)
(-0.00068033552 2.1026591e-06 0)
(-0.00069641966 2.1203425e-06 0)
(-0.00071258672 2.1380549e-06 0)
(-0.00072883597 2.1558212e-06 0)
(-0.00074516683 2.1736666e-06 0)
(-0.00076157888 2.1916179e-06 0)
(-0.00077807181 2.2097021e-06 0)
(-0.00079464546 2.2279475e-06 0)
(-0.00081129981 2.2463826e-06 0)
(-0.00082803498 2.2650367e-06 0)
(-0.00084485122 2.2839393e-06 0)
(-0.0008617489 2.3031201e-06 0)
(-0.00087872852 2.3226084e-06 0)
(-0.00089579068 2.3424339e-06 0)
(-0.0009129361 2.3626249e-06 0)
(-0.00093016555 2.3832093e-06 0)
(-0.00094747991 2.4042133e-06 0)
(-0.00096488009 2.4256622e-06 0)
(-0.00098236703 2.4475783e-06 0)
(-0.00099994167 2.4699822e-06 0)
(-0.0010176049 2.492891e-06 0)
(-0.0010353577 2.5163189e-06 0)
(-0.0010532007 2.5402752e-06 0)
(-0.0010711346 2.5647653e-06 0)
(-0.0010891599 2.5897886e-06 0)
(-0.0011072767 2.6153395e-06 0)
(-0.0011254851 2.6414043e-06 0)
(-0.0011437847 2.6679632e-06 0)
(-0.0011621748 2.6949868e-06 0)
(-0.0011806539 2.7224379e-06 0)
(-0.0011992206 2.750268e-06 0)
(-0.0012178722 2.7784188e-06 0)
(-0.0012366058 2.8068191e-06 0)
(-0.0012554175 2.8353864e-06 0)
(-0.0012743026 2.8640227e-06 0)
(-0.0012932554 2.8926168e-06 0)
(-0.0013122691 2.9210402e-06 0)
(-0.0013313358 2.9491496e-06 0)
(-0.0013504463 2.9767819e-06 0)
(-0.0013695899 3.0037571e-06 0)
(-0.0013887545 3.029874e-06 0)
(-0.0014079263 3.0549127e-06 0)
(-0.0014270897 3.07863e-06 0)
(-0.0014462274 3.1007624e-06 0)
(-0.00146532 3.1210217e-06 0)
(-0.0014843458 3.1390988e-06 0)
(-0.001503281 3.1546579e-06 0)
(-0.0015220994 3.1673417e-06 0)
(-0.0015407724 3.1767664e-06 0)
(-0.0015592686 3.1825262e-06 0)
(-0.001577554 3.1841889e-06 0)
(-0.0015955917 3.1813007e-06 0)
(-0.0016133419 3.173383e-06 0)
(-0.0016307619 3.1599372e-06 0)
(-0.0016478057 3.1404408e-06 0)
(-0.0016644244 3.1143536e-06 0)
(-0.0016805657 3.0811153e-06 0)
(-0.0016961743 3.0401511e-06 0)
(-0.0017111913 2.9908711e-06 0)
(-0.001725555 2.9326771e-06 0)
(-0.0017392002 2.8649629e-06 0)
(-0.0017520586 2.7871207e-06 0)
(-0.0017640589 2.69854e-06 0)
(-0.0017751268 2.5986168e-06 0)
(-0.0017851852 2.4867537e-06 0)
(-0.001794154 2.3623704e-06 0)
(-0.0018019511 2.2249032e-06 0)
(-0.0018084916 2.0738162e-06 0)
(-0.0018136889 1.9085871e-06 0)
(-0.0018174543 1.7287335e-06 0)
(-0.0018196978 1.5338075e-06 0)
(-0.0018203282 1.3234344e-06 0)
(-0.0018192534 1.0973231e-06 0)
(-0.0018163808 8.5518656e-07 0)
(-0.0018116179 5.9680959e-07 0)
(-0.0018048725 3.2205139e-07 0)
(-0.0017960529 3.0842259e-08 0)
(-0.0017850691 -2.7680402e-07 0)
(-0.0017718325 -6.0079645e-07 0)
(-0.0017562567 -9.4095373e-07 0)
(-0.0017382579 -1.2970106e-06 0)
(-0.0017177554 -1.6686077e-06 0)
(-0.001694672 -2.0553e-06 0)
(-0.0016689347 -2.4565482e-06 0)
(-0.0016404747 -2.871728e-06 0)
(-0.0016092279 -3.3001251e-06 0)
(-0.0015751358 -3.7409472e-06 0)
(-0.001538145 -4.193321e-06 0)
(-0.0014982081 -4.6563062e-06 0)
(-0.0014552837 -5.1288963e-06 0)
(-0.0014093367 -5.6100348e-06 0)
(-0.0013603383 -6.0986203e-06 0)
(-0.0013082661 -6.5935241e-06 0)
(-0.0012531041 -7.0935996e-06 0)
(-0.0011948426 -7.5977025e-06 0)
(-0.0011334778 -8.1047069e-06 0)
(-0.0010690116 -8.6135261e-06 0)
(-0.0010014513 -9.1231358e-06 0)
(-0.00093080875 -9.632602e-06 0)
(-0.00085709959 -1.0141111e-05 0)
(-0.0007803425 -1.0648001e-05 0)
(-0.00070055782 -1.1152824e-05 0)
(-0.00061776613 -1.1655367e-05 0)
(-0.00053198635 -1.215576e-05 0)
(-0.00044323337 -1.2654523e-05 0)
(-0.00035151511 -1.315273e-05 0)
(-0.00025682822 -1.3652281e-05 0)
(-0.00015915271 -1.415595e-05 0)
(-5.8444425e-05 -1.4667649e-05 0)
(4.5378576e-05 -1.5192169e-05 0)
(0.0001524534 -1.5741273e-05 0)
(0.00026299494 -1.6337705e-05 0)
(0.00037734017 -1.7016804e-05 0)
(0.00049602086 -1.7839614e-05 0)
(0.0006198791 -1.8915537e-05 0)
(0.00075027263 -2.0443859e-05 0)
(0.00088946598 -2.2809788e-05 0)
(0.0010411191 -2.677235e-05 0)
(0.0012101186 -3.3370337e-05 0)
(0.0014057902 -4.3277612e-05 0)
(0.0016713856 -6.5469216e-05 0)
(0.0020337478 -0.0001336308 0)
(-3.2216336e-05 0.00010196763 0)
(-0.00023129389 0.00021169711 0)
(-0.00047231631 0.00022669402 0)
(-0.00068064523 0.00017808173 0)
(-0.00081217943 0.00010440142 0)
(-0.00086192603 3.1546869e-05 0)
(-0.00084271329 -2.7407646e-05 0)
(-0.00077373654 -6.8295203e-05 0)
(-0.00067436889 -9.1996387e-05 0)
(-0.00056106475 -0.00010168021 0)
(-0.00044628103 -0.00010112214 0)
(-0.00033854798 -9.3821757e-05 0)
(-0.00024306294 -8.2636623e-05 0)
(-0.00016243984 -6.9704647e-05 0)
(-9.7432359e-05 -5.6508484e-05 0)
(-4.755094e-05 -4.3995434e-05 0)
(-1.1547858e-05 -3.2706726e-05 0)
(1.2223337e-05 -2.2892862e-05 0)
(2.5553797e-05 -1.4607845e-05 0)
(3.0209182e-05 -7.7815079e-06 0)
(2.78253e-05 -2.2724739e-06 0)
(1.9850302e-05 2.0950958e-06 0)
(7.5199613e-06 5.5067554e-06 0)
(-8.1448161e-06 8.1418821e-06 0)
(-2.6326178e-05 1.0164578e-05 0)
(-4.6389505e-05 1.1718727e-05 0)
(-6.7858987e-05 1.2926162e-05 0)
(-9.0392151e-05 1.38868e-05 0)
(-0.00011375487 1.4680057e-05 0)
(-0.00013779815 1.5366955e-05 0)
(-0.00016243751 1.5992558e-05 0)
(-0.00018763513 1.6588538e-05 0)
(-0.00021338505 1.7175673e-05 0)
(-0.00023970114 1.7766167e-05 0)
(-0.00026660776 1.8365739e-05 0)
(-0.00029413275 1.8975423e-05 0)
(-0.00032230248 1.9593096e-05 0)
(-0.00035113858 2.0214708e-05 0)
(-0.00038065608 2.0835256e-05 0)
(-0.00041086258 2.1449504e-05 0)
(-0.00044175826 2.2052503e-05 0)
(-0.00047333638 2.2639928e-05 0)
(-0.0005055842 2.3208259e-05 0)
(-0.00053848404 2.3754867e-05 0)
(-0.00057201446 2.4278e-05 0)
(-0.00060615129 2.4776722e-05 0)
(-0.00064086874 2.5250803e-05 0)
(-0.00067614023 2.5700604e-05 0)
(-0.00071193915 2.6126946e-05 0)
(-0.00074823944 2.6530987e-05 0)
(-0.00078501601 2.691411e-05 0)
(-0.00082224508 2.727783e-05 0)
(-0.00085990431 2.7623708e-05 0)
(-0.00089797295 2.795329e-05 0)
(-0.00093643182 2.8268063e-05 0)
(-0.00097526328 2.8569418e-05 0)
(-0.0010144511 2.8858633e-05 0)
(-0.0010539805 2.9136862e-05 0)
(-0.0010938379 2.940513e-05 0)
(-0.0011340106 2.966434e-05 0)
(-0.0011744872 2.9915282e-05 0)
(-0.001215257 3.0158637e-05 0)
(-0.00125631 3.0394998e-05 0)
(-0.001297637 3.0624874e-05 0)
(-0.0013392291 3.0848707e-05 0)
(-0.0013810782 3.1066883e-05 0)
(-0.0014231765 3.1279745e-05 0)
(-0.0014655165 3.1487596e-05 0)
(-0.0015080913 3.1690714e-05 0)
(-0.0015508941 3.1889359e-05 0)
(-0.0015939185 3.2083775e-05 0)
(-0.0016371584 3.22742e-05 0)
(-0.0016806079 3.2460865e-05 0)
(-0.0017242616 3.2644003e-05 0)
(-0.0017681142 3.2823849e-05 0)
(-0.0018121606 3.3000642e-05 0)
(-0.0018563963 3.3174624e-05 0)
(-0.0019008169 3.3346048e-05 0)
(-0.0019454182 3.3515169e-05 0)
(-0.0019901966 3.3682251e-05 0)
(-0.0020351486 3.3847563e-05 0)
(-0.002080271 3.4011381e-05 0)
(-0.0021255611 3.4173984e-05 0)
(-0.0021710163 3.4335652e-05 0)
(-0.0022166345 3.4496667e-05 0)
(-0.0022624139 3.465731e-05 0)
(-0.0023083528 3.4817857e-05 0)
(-0.00235445 3.4978576e-05 0)
(-0.0024007045 3.5139726e-05 0)
(-0.0024471155 3.5301552e-05 0)
(-0.0024936825 3.5464279e-05 0)
(-0.0025404053 3.5628112e-05 0)
(-0.0025872835 3.5793228e-05 0)
(-0.002634317 3.5959772e-05 0)
(-0.002681506 3.6127851e-05 0)
(-0.0027288502 3.6297527e-05 0)
(-0.0027763496 3.6468814e-05 0)
(-0.0028240038 3.6641668e-05 0)
(-0.0028718123 3.6815982e-05 0)
(-0.0029197743 3.6991576e-05 0)
(-0.0029678884 3.716819e-05 0)
(-0.0030161527 3.7345479e-05 0)
(-0.0030645646 3.7522998e-05 0)
(-0.0031131208 3.7700198e-05 0)
(-0.0031618167 3.7876414e-05 0)
(-0.0032106468 3.8050857e-05 0)
(-0.0032596044 3.8222604e-05 0)
(-0.003308681 3.8390586e-05 0)
(-0.0033578666 3.8553579e-05 0)
(-0.0034071492 3.8710196e-05 0)
(-0.0034565147 3.8858873e-05 0)
(-0.0035059466 3.8997864e-05 0)
(-0.003555426 3.9125222e-05 0)
(-0.0036049307 3.9238802e-05 0)
(-0.0036544359 3.9336242e-05 0)
(-0.003703913 3.9414958e-05 0)
(-0.0037533299 3.9472137e-05 0)
(-0.0038026506 3.9504728e-05 0)
(-0.0038518346 3.9509437e-05 0)
(-0.0039008371 3.9482723e-05 0)
(-0.0039496082 3.9420792e-05 0)
(-0.003998093 3.9319599e-05 0)
(-0.0040462313 3.917484e-05 0)
(-0.0040939568 3.8981964e-05 0)
(-0.0041411974 3.8736168e-05 0)
(-0.0041878746 3.8432405e-05 0)
(-0.0042339035 3.8065395e-05 0)
(-0.0042791922 3.7629634e-05 0)
(-0.0043236419 3.7119405e-05 0)
(-0.0043671465 3.6528797e-05 0)
(-0.0044095924 3.5851723e-05 0)
(-0.0044508588 3.5081943e-05 0)
(-0.0044908168 3.4213083e-05 0)
(-0.00452933 3.3238669e-05 0)
(-0.0045662543 3.2152152e-05 0)
(-0.0046014377 3.094695e-05 0)
(-0.0046347204 2.9616485e-05 0)
(-0.0046659353 2.8154235e-05 0)
(-0.0046949077 2.6553775e-05 0)
(-0.0047214559 2.4808827e-05 0)
(-0.0047453912 2.2913304e-05 0)
(-0.0047665184 2.0861364e-05 0)
(-0.0047846363 1.8647469e-05 0)
(-0.0047995382 1.6266439e-05 0)
(-0.004811012 1.3713506e-05 0)
(-0.0048188417 1.098437e-05 0)
(-0.0048228072 8.0752015e-06 0)
(-0.0048226857 4.982828e-06 0)
(-0.004818252 1.7048291e-06 0)
(-0.0048092799 -1.7606611e-06 0)
(-0.0047955428 -5.4147644e-06 0)
(-0.0047768147 -9.2577315e-06 0)
(-0.0047528712 -1.3289025e-05 0)
(-0.0047234907 -1.7507242e-05 0)
(-0.0046884552 -2.1910082e-05 0)
(-0.0046475516 -2.6494316e-05 0)
(-0.0046005727 -3.1255782e-05 0)
(-0.0045473184 -3.6189369e-05 0)
(-0.0044875968 -4.1289026e-05 0)
(-0.004421225 -4.654777e-05 0)
(-0.0043480305 -5.195772e-05 0)
(-0.0042678516 -5.7510115e-05 0)
(-0.0041805392 -6.3195379e-05 0)
(-0.0040859568 -6.900316e-05 0)
(-0.0039839815 -7.492242e-05 0)
(-0.0038745049 -8.0941501e-05 0)
(-0.0037574335 -8.7048236e-05 0)
(-0.0036326887 -9.3230049e-05 0)
(-0.0035002076 -9.9474086e-05 0)
(-0.0033599428 -0.00010576735 0)
(-0.0032118626 -0.00011209687 0)
(-0.00305595 -0.00011844984 0)
(-0.0028922031 -0.00012481386 0)
(-0.0027206337 -0.00013117711 0)
(-0.0025412668 -0.00013752862 0)
(-0.0023541385 -0.00014385851 0)
(-0.0021592954 -0.00015015834 0)
(-0.0019567917 -0.00015642149 0)
(-0.0017466869 -0.00016264353 0)
(-0.0015290428 -0.00016882288 0)
(-0.0013039197 -0.00017496138 0)
(-0.0010713714 -0.00018106529 0)
(-0.00083143941 -0.00018714636 0)
(-0.00058414534 -0.00019322371 0)
(-0.00032948048 -0.00019932624 0)
(-6.7392193e-05 -0.00020549618 0)
(0.00020223503 -0.00021179547 0)
(0.00047960364 -0.00021831447 0)
(0.00076503616 -0.00022518957 0)
(0.0010590317 -0.0002326273 0)
(0.0013623448 -0.00024094168 0)
(0.0016760959 -0.00025062246 0)
(0.0020019369 -0.00026244719 0)
(0.0023422989 -0.00027766434 0)
(0.002700779 -0.00029828561 0)
(0.0030823904 -0.00032750053 0)
(0.003492545 -0.00037007659 0)
(0.0039396743 -0.00043271522 0)
(0.0044688591 -0.00052465084 0)
(0.0051031475 -0.00064326206 0)
(-4.8460555e-05 0.00026111741 0)
(-0.00031844114 0.00049023069 0)
(-0.00060284186 0.00049451439 0)
(-0.00081855242 0.00036827405 0)
(-0.00092677984 0.0001968008 0)
(-0.00093485952 3.4061471e-05 0)
(-0.00086617025 -9.4013694e-05 0)
(-0.00074717399 -0.00018026365 0)
(-0.00060171219 -0.00022781823 0)
(-0.00044865761 -0.0002442781 0)
(-0.00030154458 -0.00023824821 0)
(-0.00016915488 -0.0002175651 0)
(-5.6448362e-05 -0.00018858756 0)
(3.448323e-05 -0.00015607012 0)
(0.00010356846 -0.00012332087 0)
(0.00015205936 -9.246271e-05 0)
(0.00018199235 -6.4714652e-05 0)
(0.00019578999 -4.0641674e-05 0)
(0.00019597795 -2.0359668e-05 0)
(0.00018499496 -3.6956957e-06 0)
(0.00016507497 9.6939599e-06 0)
(0.00013818246 2.0238266e-05 0)
(0.00010598546 2.8392807e-05 0)
(6.9854989e-05 3.4602192e-05 0)
(3.0881831e-05 3.9276407e-05 0)
(-1.0096009e-05 4.2777784e-05 0)
(-5.2460018e-05 4.5415455e-05 0)
(-9.5776371e-05 4.7444629e-05 0)
(-0.00013976143 4.9069365e-05 0)
(-0.00018424966 5.0447303e-05 0)
(-0.00022916473 5.169542e-05 0)
(-0.00027449449 5.2896217e-05 0)
(-0.00032026996 5.4103887e-05 0)
(-0.00036654825 5.5350139e-05 0)
(-0.00041339916 5.6649489e-05 0)
(-0.00046089517 5.8003908e-05 0)
(-0.00050910419 5.9406771e-05 0)
(-0.00055808495 6.08461e-05 0)
(-0.00060788419 6.2307141e-05 0)
(-0.00065853553 6.3774318e-05 0)
(-0.00071005951 6.5232645e-05 0)
(-0.00076246436 6.6668669e-05 0)
(-0.00081574743 6.8071031e-05 0)
(-0.00086989685 6.943072e-05 0)
(-0.00092489326 7.0741103e-05 0)
(-0.00098071162 7.199779e-05 0)
(-0.0010373228 7.3198389e-05 0)
(-0.0010946952 7.4342214e-05 0)
(-0.0011527955 7.542995e-05 0)
(-0.0012115902 7.6463344e-05 0)
(-0.0012710463 7.7444902e-05 0)
(-0.0013311316 7.837763e-05 0)
(-0.0013918153 7.9264809e-05 0)
(-0.0014530682 8.0109818e-05 0)
(-0.001514863 8.0915998e-05 0)
(-0.0015771739 8.1686545e-05 0)
(-0.0016399771 8.2424449e-05 0)
(-0.0017032505 8.3132447e-05 0)
(-0.0017669732 8.3813008e-05 0)
(-0.001831126 8.4468331e-05 0)
(-0.001895691 8.5100351e-05 0)
(-0.0019606511 8.5710765e-05 0)
(-0.0020259905 8.630105e-05 0)
(-0.0020916942 8.6872495e-05 0)
(-0.0021577478 8.7426222e-05 0)
(-0.0022241377 8.7963219e-05 0)
(-0.0022908511 8.8484364e-05 0)
(-0.0023578754 8.8990444e-05 0)
(-0.0024251987 8.9482181e-05 0)
(-0.0024928095 8.9960248e-05 0)
(-0.0025606967 9.0425281e-05 0)
(-0.0026288498 9.0877897e-05 0)
(-0.0026972584 9.1318701e-05 0)
(-0.0027659128 9.1748294e-05 0)
(-0.0028348034 9.2167283e-05 0)
(-0.0029039214 9.257628e-05 0)
(-0.002973258 9.297591e-05 0)
(-0.003042805 9.3366808e-05 0)
(-0.0031125547 9.3749623e-05 0)
(-0.0031824997 9.4125016e-05 0)
(-0.0032526329 9.4493657e-05 0)
(-0.003322948 9.4856223e-05 0)
(-0.0033934387 9.5213394e-05 0)
(-0.0034640993 9.5565846e-05 0)
(-0.0035349245 9.5914249e-05 0)
(-0.0036059094 9.6259256e-05 0)
(-0.0036770494 9.66015e-05 0)
(-0.0037483403 9.694158e-05 0)
(-0.003819778 9.7280057e-05 0)
(-0.0038913589 9.7617438e-05 0)
(-0.0039630794 9.7954169e-05 0)
(-0.0040349362 9.829062e-05 0)
(-0.0041069259 9.8627073e-05 0)
(-0.0041790451 9.8963707e-05 0)
(-0.0042512903 9.9300581e-05 0)
(-0.0043236579 9.963762e-05 0)
(-0.0043961438 9.9974596e-05 0)
(-0.0044687434 0.00010031111 0)
(-0.0045414517 0.00010064657 0)
(-0.0046142627 0.00010098018 0)
(-0.0046871696 0.0001013109 0)
(-0.0047601643 0.00010163744 0)
(-0.0048332375 0.00010195824 0)
(-0.0049063784 0.00010227142 0)
(-0.0049795741 0.00010257479 0)
(-0.0050528099 0.00010286581 0)
(-0.0051260688 0.00010314154 0)
(-0.005199331 0.00010339867 0)
(-0.0052725738 0.00010363344 0)
(-0.0053457715 0.00010384164 0)
(-0.0054188947 0.00010401861 0)
(-0.0054919099 0.00010415914 0)
(-0.0055647795 0.00010425755 0)
(-0.0056374614 0.00010430757 0)
(-0.0057099081 0.00010430239 0)
(-0.005782067 0.0001042346 0)
(-0.0058538794 0.00010409621 0)
(-0.0059252806 0.00010387859 0)
(-0.005996199 0.00010357251 0)
(-0.0060665561 0.0001031681 0)
(-0.0061362658 0.00010265485 0)
(-0.0062052344 0.00010202163 0)
(-0.0062733595 0.00010125669 0)
(-0.0063405304 0.00010034764 0)
(-0.0064066272 9.9281534e-05 0)
(-0.0064715208 9.8044827e-05 0)
(-0.0065350723 9.6623445e-05 0)
(-0.006597133 9.500281e-05 0)
(-0.0066575439 9.3167889e-05 0)
(-0.0067161357 9.1103239e-05 0)
(-0.0067727284 8.8793073e-05 0)
(-0.0068271316 8.6221323e-05 0)
(-0.006879144 8.3371711e-05 0)
(-0.0069285538 8.0227831e-05 0)
(-0.0069751385 7.6773239e-05 0)
(-0.0070186651 7.2991549e-05 0)
(-0.0070588904 6.8866556e-05 0)
(-0.0070955612 6.4382361e-05 0)
(-0.007128415 5.9523491e-05 0)
(-0.0071571801 5.4275018e-05 0)
(-0.0071815761 4.8622694e-05 0)
(-0.0072013152 4.2553079e-05 0)
(-0.0072161023 3.6053684e-05 0)
(-0.0072256359 2.9113092e-05 0)
(-0.0072296094 2.1721088e-05 0)
(-0.0072277119 1.3868845e-05 0)
(-0.0072196291 5.5491426e-06 0)
(-0.0072050447 -3.2435137e-06 0)
(-0.0071836421 -1.2513113e-05 0)
(-0.0071551046 -2.2261514e-05 0)
(-0.0071191176 -3.2488685e-05 0)
(-0.00707537 -4.3192525e-05 0)
(-0.0070235549 -5.4368766e-05 0)
(-0.0069633719 -6.6010902e-05 0)
(-0.0068945282 -7.8110133e-05 0)
(-0.0068167402 -9.0655341e-05 0)
(-0.0067297349 -0.00010363308 0)
(-0.0066332513 -0.00011702758 0)
(-0.0065270422 -0.00013082081 0)
(-0.006410875 -0.0001449925 0)
(-0.0062845332 -0.00015952027 0)
(-0.0061478179 -0.00017437974 0)
(-0.0060005483 -0.00018954462 0)
(-0.0058425631 -0.00020498695 0)
(-0.0056737214 -0.00022067728 0)
(-0.0054939027 -0.00023658488 0)
(-0.0053030083 -0.000252678 0)
(-0.0051009609 -0.0002689242 0)
(-0.004887705 -0.00028529065 0)
(-0.0046632066 -0.00030174447 0)
(-0.004427453 -0.00031825317 0)
(-0.0041804523 -0.00033478504 0)
(-0.0039222318 -0.00035130969 0)
(-0.0036528375 -0.00036779853 0)
(-0.003372332 -0.0003842254 0)
(-0.0030807927 -0.00040056725 0)
(-0.002778309 -0.00041680495 0)
(-0.0024649797 -0.00043292417 0)
(-0.0021409091 -0.00044891648 0)
(-0.0018062028 -0.00046478082 0)
(-0.001460962 -0.00048052503 0)
(-0.0011052772 -0.00049616863 0)
(-0.00073922017 -0.00051174522 0)
(-0.00036283386 -0.000527308 0)
(2.3880913e-05 -0.00054293421 0)
(0.00042098148 -0.00055873296 0)
(0.00082860538 -0.00057486085 0)
(0.0012469994 -0.00059154073 0)
(0.0016765577 -0.00060909032 0)
(0.0021178748 -0.00062796536 0)
(0.0025718147 -0.00064882939 0)
(0.0030395997 -0.00067265667 0)
(0.0035229177 -0.00070088344 0)
(0.0040240463 -0.00073561916 0)
(0.0045460005 -0.00077991342 0)
(0.0050923926 -0.00083799009 0)
(0.0056655627 -0.00091505343 0)
(0.0062668569 -0.0010160609 0)
(0.0069306745 -0.0011429188 0)
(0.0077052099 -0.0012813579 0)
(-6.4561034e-05 0.00046631146 0)
(-0.0003659145 0.00080346971 0)
(-0.00061323247 0.0007518282 0)
(-0.00074286247 0.00051009937 0)
(-0.00074533645 0.00022137796 0)
(-0.00065253286 -3.4655262e-05 0)
(-0.00050120232 -0.00022513766 0)
(-0.00032239232 -0.00034514591 0)
(-0.00013919396 -0.00040358394 0)
(3.2725525e-05 -0.00041441697 0)
(0.00018370864 -0.0003919379 0)
(0.00030862368 -0.00034855426 0)
(0.00040556998 -0.00029405927 0)
(0.00047486326 -0.00023564741 0)
(0.00051825849 -0.00017825438 0)
(0.00053836815 -0.00012500127 0)
(0.00053823612 -7.7631797e-05 0)
(0.0005210325 -3.689546e-05 0)
(0.00048983965 -2.8581083e-06 0)
(0.00044751195 2.485804e-05 0)
(0.00039659316 4.6889871e-05 0)
(0.00033927431 6.4002716e-05 0)
(0.00027738234 7.7000046e-05 0)
(0.00021239126 8.6662027e-05 0)
(0.00014544857 9.3707085e-05 0)
(7.7410745e-05 9.8770326e-05 0)
(8.8834443e-06 0.00010239399 0)
(-5.9736924e-05 0.00010502624 0)
(-0.00012822286 0.0001070255 0)
(-0.0001964783 0.00010866824 0)
(-0.00026450487 0.00011015897 0)
(-0.00033237266 0.00011164095 0)
(-0.00040019574 0.00011320691 0)
(-0.00046811228 0.00011490931 0)
(-0.00053626896 0.00011676975 0)
(-0.00060480939 0.00011878724 0)
(-0.0006738659 0.00012094525 0)
(-0.00074355426 0.00012321762 0)
(-0.00081397078 0.00012557318 0)
(-0.00088519127 0.00012797932 0)
(-0.0009572714 0.00013040464 0)
(-0.001030248 0.00013282062 0)
(-0.0011041412 0.00013520274 0)
(-0.0011789566 0.00013753096 0)
(-0.0012546877 0.00013978979 0)
(-0.0013313185 0.00014196808 0)
(-0.0014088257 0.0001440586 0)
(-0.0014871807 0.0001460575 0)
(-0.0015663511 0.0001479637 0)
(-0.0016463027 0.00014977835 0)
(-0.0017270001 0.00015150421 0)
(-0.001808408 0.00015314522 0)
(-0.0018904916 0.00015470604 0)
(-0.0019732171 0.00015619172 0)
(-0.0020565524 0.0001576074 0)
(-0.0021404665 0.00015895813 0)
(-0.0022249303 0.00016024873 0)
(-0.002309916 0.00016148366 0)
(-0.0023953976 0.00016266701 0)
(-0.0024813503 0.00016380244 0)
(-0.0025677506 0.00016489323 0)
(-0.0026545762 0.00016594224 0)
(-0.0027418059 0.00016695201 0)
(-0.0028294194 0.00016792475 0)
(-0.0029173971 0.00016886241 0)
(-0.0030057204 0.0001697667 0)
(-0.003094371 0.00017063917 0)
(-0.0031833316 0.00017148119 0)
(-0.0032725851 0.00017229405 0)
(-0.0033621152 0.00017307892 0)
(-0.003451906 0.00017383695 0)
(-0.0035419419 0.00017456921 0)
(-0.003632208 0.00017527679 0)
(-0.0037226898 0.00017596075 0)
(-0.0038133731 0.00017662216 0)
(-0.0039042444 0.00017726209 0)
(-0.0039952904 0.00017788164 0)
(-0.0040864984 0.00017848193 0)
(-0.0041778563 0.00017906407 0)
(-0.0042693521 0.0001796292 0)
(-0.0043609745 0.00018017847 0)
(-0.0044527127 0.00018071302 0)
(-0.0045445561 0.00018123398 0)
(-0.0046364947 0.00018174248 0)
(-0.0047285187 0.00018223961 0)
(-0.0048206189 0.00018272641 0)
(-0.0049127862 0.00018320386 0)
(-0.0050050118 0.00018367287 0)
(-0.0050972872 0.00018413426 0)
(-0.0051896038 0.00018458872 0)
(-0.0052819534 0.00018503681 0)
(-0.0053743274 0.00018547893 0)
(-0.0054667173 0.00018591528 0)
(-0.005559114 0.00018634586 0)
(-0.0056515085 0.00018677041 0)
(-0.0057438907 0.0001871884 0)
(-0.0058362501 0.000187599 0)
(-0.0059285752 0.00018800102 0)
(-0.0060208534 0.0001883929 0)
(-0.0061130708 0.00018877265 0)
(-0.0062052118 0.00018913783 0)
(-0.0062972591 0.0001894855 0)
(-0.0063891934 0.00018981219 0)
(-0.0064809929 0.00019011383 0)
(-0.006572633 0.00019038573 0)
(-0.0066640862 0.00019062253 0)
(-0.0067553218 0.00019081816 0)
(-0.0068463051 0.00019096579 0)
(-0.0069369974 0.00019105778 0)
(-0.0070273554 0.00019108564 0)
(-0.007117331 0.00019104001 0)
(-0.0072068705 0.00019091061 0)
(-0.0072959146 0.00019068617 0)
(-0.0073843977 0.00019035444 0)
(-0.0074722473 0.00018990214 0)
(-0.0075593839 0.00018931495 0)
(-0.0076457202 0.00018857745 0)
(-0.0077311607 0.00018767316 0)
(-0.0078156015 0.00018658447 0)
(-0.0078989292 0.0001852927 0)
(-0.0079810213 0.00018377806 0)
(-0.0080617451 0.00018201967 0)
(-0.0081409574 0.00017999561 0)
(-0.0082185045 0.00017768293 0)
(-0.0082942214 0.00017505772 0)
(-0.0083679315 0.00017209512 0)
(-0.0084394465 0.00016876945 0)
(-0.0085085664 0.00016505425 0)
(-0.0085750786 0.00016092239 0)
(-0.0086387585 0.00015634617 0)
(-0.008699369 0.00015129747 0)
(-0.0087566608 0.00014574782 0)
(-0.0088103722 0.00013966861 0)
(-0.0088602295 0.00013303123 0)
(-0.0089059472 0.00012580719 0)
(-0.0089472284 0.00011796838 0)
(-0.0089837649 0.00010948724 0)
(-0.0090152382 0.00010033701 0)
(-0.0090413199 9.0491963e-05 0)
(-0.0090616723 7.992761e-05 0)
(-0.0090759499 6.8620924e-05 0)
(-0.0090837993 5.6550565e-05 0)
(-0.0090848614 4.3697107e-05 0)
(-0.0090787715 3.004325e-05 0)
(-0.0090651615 1.5574206e-05 0)
(-0.0090436599 2.7830922e-07 0)
(-0.0090138956 -1.5853788e-05 0)
(-0.0089754973 -3.2828135e-05 0)
(-0.0089280952 -5.0647378e-05 0)
(-0.0088713234 -6.9310851e-05 0)
(-0.0088048208 -8.8814278e-05 0)
(-0.0087282334 -0.0001091496 0)
(-0.0086412156 -0.00013030488 0)
(-0.0085434322 -0.00015226423 0)
(-0.0084345597 -0.00017500773 0)
(-0.0083142885 -0.00019851148 0)
(-0.008182324 -0.00022274756 0)
(-0.0080383886 -0.00024768414 0)
(-0.0078822228 -0.00027328558 0)
(-0.007713587 -0.00029951255 0)
(-0.0075322627 -0.00032632228 0)
(-0.0073380532 -0.00035366875 0)
(-0.0071307853 -0.00038150299 0)
(-0.0069103098 -0.00040977343 0)
(-0.0066765022 -0.00043842624 0)
(-0.0064292633 -0.0004674058 0)
(-0.0061685194 -0.00049665515 0)
(-0.0058942222 -0.00052611652 0)
(-0.0056063492 -0.0005557319 0)
(-0.0053049025 -0.00058544372 0)
(-0.0049899085 -0.00061519548 0)
(-0.0046614169 -0.00064493254 0)
(-0.0043194992 -0.00067460293 0)
(-0.0039642471 -0.00070415835 0)
(-0.0035957701 -0.0007335551 0)
(-0.0032141935 -0.00076275524 0)
(-0.0028196549 -0.00079172808 0)
(-0.0024123009 -0.00082045156 0)
(-0.0019922826 -0.00084891419 0)
(-0.0015597508 -0.0008771178 0)
(-0.0011148504 -0.00090507956 0)
(-0.00065771242 -0.00093283819 0)
(-0.00018844683 -0.00096045609 0)
(0.00029286896 -0.00098802469 0)
(0.00078620552 -0.0010156783 0)
(0.0012915929 -0.0010436041 0)
(0.0018091406 -0.0010720616 0)
(0.0023390637 -0.0011014095 0)
(0.0028817104 -0.0011321442 0)
(0.0034375984 -0.0011649547 0)
(0.0040074531 -0.0012008022 0)
(0.0045922464 -0.0012410284 0)
(0.0051932194 -0.0012874959 0)
(0.0058118731 -0.0013427479 0)
(0.0064499202 -0.0014101373 0)
(0.0071089618 -0.0014937684 0)
(0.0077884403 -0.0015977493 0)
(0.0084851071 -0.0017238236 0)
(0.009226873 -0.0018666423 0)
(0.0100961 -0.0020073869 0)
(-8.2510222e-05 0.00069793303 0)
(-0.00036661471 0.0010767145 0)
(-0.00046710258 0.00089315813 0)
(-0.00039574604 0.0005010594 0)
(-0.00020450927 9.9197316e-05 0)
(4.2337001e-05 -0.00022316048 0)
(0.00029801423 -0.00044064104 0)
(0.0005342227 -0.00055982941 0)
(0.00073632585 -0.00059987631 0)
(0.00089830338 -0.0005824231 0)
(0.0010192167 -0.00052707497 0)
(0.0011009672 -0.00044976567 0)
(0.0011469543 -0.00036254189 0)
(0.0011612931 -0.00027397036 0)
(0.0011483517 -0.00018975292 0)
(0.0011124726 -0.00011335678 0)
(0.0010577949 -4.6579539e-05 0)
(0.00098814329 9.9759965e-06 0)
(0.0009069531 5.6529589e-05 0)
(0.00081723752 9.3817802e-05 0)
(0.00072156905 0.00012287907 0)
(0.00062208283 0.00014489299 0)
(0.00052049661 0.00016106569 0)
(0.00041814256 0.00017255255 0)
(0.00031600716 0.00018040944 0)
(0.00021477579 0.00018556527 0)
(0.0001148792 0.0001888102 0)
(1.6539425e-05 0.00019079488 0)
(-8.0186419e-05 0.00019203739 0)
(-0.00017536622 0.00019293482 0)
(-0.00026915728 0.00019377776 0)
(-0.00036177565 0.00019476624 0)
(-0.00045347057 0.00019602554 0)
(-0.000544504 0.00019762141 0)
(-0.00063513475 0.000199574 0)
(-0.00072560689 0.00020187021 0)
(-0.00081614182 0.00020447428 0)
(-0.00090693343 0.00020733653 0)
(-0.00099814581 0.00021040042 0)
(-0.001089913 0.00021360784 0)
(-0.0011823399 0.0002169031 0)
(-0.0012755051 0.00022023552 0)
(-0.0013694628 0.00022356102 0)
(-0.0014642468 0.00022684291 0)
(-0.0015598732 0.00023005199 0)
(-0.0016563439 0.00023316617 0)
(-0.0017536495 0.00023616985 0)
(-0.0018517716 0.00023905305 0)
(-0.0019506856 0.00024181053 0)
(-0.0020503622 0.0002444408 0)
(-0.0021507692 0.00024694532 0)
(-0.0022518727 0.00024932767 0)
(-0.0023536381 0.00025159289 0)
(-0.0024560308 0.0002537469 0)
(-0.0025590166 0.00025579606 0)
(-0.0026625621 0.00025774682 0)
(-0.0027666352 0.00025960546 0)
(-0.0028712046 0.00026137795 0)
(-0.0029762403 0.00026306979 0)
(-0.0030817133 0.00026468599 0)
(-0.0031875961 0.00026623105 0)
(-0.0032938615 0.00026770898 0)
(-0.0034004839 0.00026912331 0)
(-0.0035074381 0.00027047717 0)
(-0.0036146997 0.00027177332 0)
(-0.0037222452 0.00027301421 0)
(-0.0038300514 0.00027420205 0)
(-0.003938096 0.00027533883 0)
(-0.004046357 0.00027642639 0)
(-0.0041548129 0.00027746647 0)
(-0.0042634428 0.0002784607 0)
(-0.0043722263 0.00027941068 0)
(-0.0044811432 0.00028031798 0)
(-0.004590174 0.00028118414 0)
(-0.0046992995 0.00028201073 0)
(-0.0048085011 0.0002827993 0)
(-0.0049177605 0.00028355143 0)
(-0.0050270598 0.00028426873 0)
(-0.0051363818 0.00028495279 0)
(-0.0052457094 0.00028560522 0)
(-0.005355026 0.00028622763 0)
(-0.0054643156 0.0002868216 0)
(-0.0055735623 0.0002873887 0)
(-0.0056827506 0.00028793043 0)
(-0.0057918653 0.00028844821 0)
(-0.0059008916 0.00028894341 0)
(-0.0060098145 0.00028941723 0)
(-0.0061186194 0.00028987076 0)
(-0.0062272916 0.0002903049 0)
(-0.0063358163 0.00029072034 0)
(-0.0064441785 0.00029111751 0)
(-0.0065523629 0.00029149657 0)
(-0.0066603537 0.00029185736 0)
(-0.0067681345 0.00029219933 0)
(-0.006875688 0.00029252152 0)
(-0.006982996 0.00029282252 0)
(-0.007090039 0.00029310038 0)
(-0.0071967963 0.0002933526 0)
(-0.0073032451 0.00029357603 0)
(-0.007409361 0.00029376685 0)
(-0.0075151173 0.0002939205 0)
(-0.0076204846 0.00029403161 0)