/*--------------------------------*- C++ -*----------------------------------*\
| =========                 |                                                 |
| \\      /  F ield         | OpenFOAM: The Open Source CFD Toolbox           |
|  \\    /   O peration     | Version:  2406                                  |
|   \\  /    A nd           | Website:  www.openfoam.com                      |
|    \\/     M anipulation  |                                                 |
\*---------------------------------------------------------------------------*/
FoamFile
{
    version     2.0;
    format      ascii;
    arch        "LSB;label=32;scalar=64";
    class       volScalarField;
    location    "557";
    object      p;
}
// * * * * * * * * * * * * * * * * * * * * * * * * * * * * * * * * * * * * * //

dimensions      [0 2 -2 0 0 0 0];

internalField   nonuniform List<scalar> 
7000
(
8.5327976e-05
0.00012246364
0.00019051535
0.00027124868
0.00034695893
0.00040957991
0.00045711065
0.00049073467
0.00051289001
0.00052621013
0.00053302475
0.00053521807
0.0005342368
0.00053115654
0.00052676018
0.00052160865
0.00051609833
0.00051050477
0.00050501556
0.00049975501
0.00049480175
0.00049020152
0.00048597657
0.00048213234
0.00047866248
0.0004755525
0.00047278242
0.0004703288
0.00046816617
0.00046626814
0.00046460818
0.0004631602
0.00046189891
0.00046080016
0.00045984108
0.0004590002
0.0004582575
0.00045759443
0.00045699389
0.00045644019
0.00045591898
0.00045541723
0.00045492311
0.00045442595
0.00045391615
0.00045338512
0.0004528252
0.00045222957
0.00045159222
0.00045090788
0.00045017194
0.00044938041
0.00044852987
0.00044761744
0.00044664069
0.00044559764
0.00044448671
0.00044330669
0.0004420567
0.00044073617
0.00043934481
0.00043788257
0.00043634964
0.00043474643
0.00043307352
0.00043133168
0.00042952181
0.00042764497
0.00042570232
0.00042369515
0.00042162482
0.0004194928
0.00041730061
0.00041504983
0.00041274209
0.00041037908
0.00040796249
0.00040549404
0.00040297549
0.00040040858
0.00039779506
0.00039513668
0.00039243518
0.00038969227
0.00038690965
0.00038408901
0.000381232
0.00037834024
0.00037541532
0.00037245878
0.00036947215
0.0003664569
0.00036341447
0.00036034624
0.00035725356
0.00035413775
0.00035100006
0.0003478417
0.00034466385
0.00034146762
0.00033825412
0.00033502436
0.00033177935
0.00032852003
0.00032524731
0.00032196206
0.0003186651
0.00031535722
0.00031203916
0.00030871163
0.00030537531
0.00030203083
0.00029867879
0.00029531976
0.00029195429
0.00028858286
0.00028520597
0.00028182405
0.00027843753
0.00027504681
0.00027165224
0.00026825419
0.00026485296
0.00026144886
0.00025804217
0.00025463315
0.00025122204
0.00024780907
0.00024439445
0.00024097836
0.00023756098
0.00023414249
0.00023072301
0.00022730271
0.00022388169
0.00022046008
0.00021703799
0.00021361549
0.0002101927
0.00020676967
0.00020334648
0.0001999232
0.00019649989
0.00019307658
0.00018965333
0.00018623018
0.00018280717
0.00017938431
0.00017596164
0.00017253918
0.00016911696
0.00016569497
0.00016227325
0.00015885179
0.00015543061
0.00015200971
0.0001485891
0.00014516877
0.00014174874
0.00013832899
0.00013490953
0.00013149035
0.00012807145
0.00012465282
0.00012123446
0.00011781637
0.00011439853
0.00011098094
0.0001075636
0.00010414649
0.0001007296
9.7312941e-05
9.3896489e-05
9.0480241e-05
8.706419e-05
8.3648326e-05
8.0232644e-05
7.6817134e-05
7.3401791e-05
6.9986605e-05
6.6571571e-05
6.3156682e-05
5.9741931e-05
5.6327311e-05
5.2912816e-05
4.9498441e-05
4.608418e-05
4.2670026e-05
3.9255976e-05
3.5842024e-05
3.2428166e-05
2.9014397e-05
2.5600713e-05
2.2187109e-05
1.8773582e-05
1.5360124e-05
1.1946726e-05
8.5333741e-06
5.1200695e-06
1.7067571e-06
6.9207701e-05
0.00011303455
0.00018103476
0.00026025882
0.00033517882
0.00039778204
0.00044589782
0.00048057827
0.00050408607
0.00051886862
0.00052712454
0.00053065758
0.00053087298
0.00052883216
0.00052532068
0.00052091117
0.00051601561
0.000510926
0.00050584572
0.00050091319
0.0004962194
0.00049182075
0.00048774853
0.00048401588
0.00048062299
0.00047756089
0.00047481433
0.00047236386
0.00047018746
0.0004682617
0.00046656255
0.00046506609
0.00046374891
0.00046258845
0.00046156322
0.00046065293
0.00045983857
0.00045910245
0.00045842819
0.00045780073
0.00045720626
0.00045663216
0.00045606697
0.00045550033
0.00045492288
0.00045432622
0.00045370284
0.00045304603
0.00045234988
0.00045160916
0.0004508193
0.00044997632
0.0004490768
0.00044811783
0.00044709696
0.00044601217
0.00044486183
0.00044364466
0.00044235974
0.00044100641
0.00043958432
0.00043809335
0.00043653361
0.00043490544
0.00043320934
0.000431446
0.00042961624
0.00042772105
0.00042576152
0.00042373886
0.00042165435
0.00041950939
0.00041730544
0.00041504401
0.00041272666
0.00041035501
0.0004079307
0.0004054554
0.0004029308
0.00040035858
0.00039774045
0.0003950781
0.00039237322
0.0003896275
0.00038684258
0.0003840201
0.00038116168
0.00037826891
0.00037534334
0.00037238648
0.00036939982
0.00036638481
0.00036334286
0.00036027533
0.00035718354
0.00035406879
0.00035093231
0.00034777529
0.00034459889
0.00034140422
0.00033819235
0.00033496429
0.00033172103
0.0003284635
0.00032519261
0.00032190921
0.00031861411
0.00031530809
0.0003119919
0.00030866622
0.00030533174
0.00030198908
0.00029863883
0.00029528156
0.00029191781
0.00028854808
0.00028517283
0.00028179253
0.00027840757
0.00027501837
0.00027162527
0.00026822864
0.00026482879
0.00026142602
0.00025802061
0.00025461282
0.0002512029
0.00024779106
0.00024437753
0.00024096248
0.0002375461
0.00023412855
0.00023070998
0.00022729054
0.00022387034
0.00022044951
0.00021702815
0.00021360636
0.00021018422
0.00020676182
0.00020333923
0.00019991651
0.00019649372
0.00019307091
0.00018964813
0.00018622541
0.0001828028
0.00017938033
0.00017595802
0.0001725359
0.00016911398
0.00016569229
0.00016227084
0.00015884963
0.00015542869
0.000152008
0.00014858759
0.00014516745
0.00014174759
0.00013832799
0.00013490867
0.00013148963
0.00012807085
0.00012465233
0.00012123407
0.00011781607
0.00011439831
0.00011098079
0.00010756351
0.00010414646
0.00010072963
9.7313008e-05
9.3896594e-05
9.048038e-05
8.7064356e-05
8.3648517e-05
8.0232853e-05
7.6817359e-05
7.3402027e-05
6.998685e-05
6.6571821e-05
6.3156934e-05
5.9742183e-05
5.632756e-05
5.291306e-05
4.9498678e-05
4.6084407e-05
4.2670243e-05
3.925618e-05
3.5842214e-05
3.2428339e-05
2.9014552e-05
2.5600849e-05
2.2187223e-05
1.8773672e-05
1.5360189e-05
1.1946765e-05
8.5333886e-06
5.120074e-06
1.7067766e-06
-1.6260842e-05
7.122001e-05
0.00016270888
0.00025000716
0.00032812605
0.00039167205
0.00043983769
0.00047457243
0.00049840124
0.00051374746
0.00052272343
0.00052704633
0.00052805362
0.00052676262
0.00052393462
0.00052013175
0.00051576435
0.00051112783
0.0005064312
0.00050181944
0.00049739037
0.000493207
0.00048930674
0.00048570825
0.00048241667
0.00047942741
0.00047672912
0.00047430579
0.00047213844
0.00047020629
0.00046848771
0.00046696086
0.00046560417
0.0004643967
0.00046331838
0.00046235019
0.00046147419
0.00046067367
0.00045993308
0.00045923807
0.00045857546
0.00045793317
0.0004573002
0.00045666657
0.00045602324
0.0004553621
0.00045467584
0.00045395796
0.00045320268
0.00045240487
0.00045156006
0.00045066432
0.00044971427
0.00044870702
0.00044764011
0.00044651151
0.00044531958
0.000444063
0.00044274079
0.00044135227
0.00043989702
0.00043837486
0.00043678584
0.00043513024
0.00043340848
0.00043162118
0.00042976912
0.00042785318
0.00042587441
0.00042383392
0.00042173296
0.00041957284
0.00041735495
0.00041508073
0.00041275171
0.00041036941
0.00040793543
0.00040545138
0.00040291889
0.00040033959
0.00039771514
0.00039504717
0.00039233734
0.00038958727
0.00038679858
0.00038397287
0.0003811117
0.00037821663
0.00037528918
0.00037233082
0.00036934302
0.00036632719
0.00036328471
0.00036021691
0.00035712511
0.00035401055
0.00035087446
0.00034771801
0.00034454234
0.00034134853
0.00033813765
0.00033491068
0.0003316686
0.00032841234
0.00032514277
0.00032186075
0.00031856708
0.00031526252
0.00031194781
0.00030862364
0.00030529066
0.00030194951
0.00029860078
0.00029524501
0.00029188275
0.00028851449
0.0002851407
0.00028176182
0.00027837826
0.00027499042
0.00027159867
0.00026820334
0.00026480475
0.00026140321
0.00025799899
0.00025459236
0.00025118355
0.00024777279
0.00024436028
0.00024094623
0.0002375308
0.00023411417
0.00023069648
0.00022727787
0.00022385848
0.00022043841
0.00021701778
0.00021359668
0.00021017521
0.00020675343
0.00020333143
0.00019990928
0.00019648702
0.00019306471
0.0001896424
0.00018622014
0.00018279795
0.00017937587
0.00017595394
0.00017253216
0.00016911058
0.00016568919
0.00016226802
0.00015884709
0.00015542639
0.00015200594
0.00014858574
0.0001451658
0.00014174612
0.0001383267
0.00013490754
0.00013148863
0.00012806999
0.00012465159
0.00012123344
0.00011781554
0.00011439788
0.00011098045
0.00010756324
0.00010414626
0.00010072948
9.7312919e-05
9.3896554e-05
9.0480381e-05
8.7064395e-05
8.3648586e-05
8.023295e-05
7.6817478e-05
7.3402164e-05
6.9987002e-05
6.6571984e-05
6.3157105e-05
5.9742357e-05
5.6327736e-05
5.2913236e-05
4.949885e-05
4.6084573e-05
4.2670401e-05
3.9256328e-05
3.584235e-05
3.2428462e-05
2.9014659e-05
2.5600938e-05
2.2187294e-05
1.8773722e-05
1.5360217e-05
1.1946772e-05
8.5333766e-06
5.1200495e-06
1.7067761e-06
-0.00028330583
-2.3718771e-05
0.00013952709
0.00024456562
0.00032847473
0.0003928617
0.00043968633
0.00047294846
0.00049580384
0.00051068689
0.00051959467
0.00052411595
0.0005254784
0.00052461966
0.00052224854
0.00051889499
0.00051495155
0.00051070391
0.00050635634
0.00050205299
0.0004978929
0.00049394131
0.00049023832
0.00048680551
0.0004836509
0.00048077269
0.00047816216
0.00047580579
0.0004736869
0.00047178686
0.00047008597
0.00046856421
0.00046720164
0.00046597883
0.00046487708
0.00046387858
0.00046296654
0.00046212521
0.00046133997
0.00046059726
0.0004598846
0.00045919057
0.0004585047
0.00045781751
0.00045712039
0.00045640557
0.00045566609
0.0004548957
0.00045408885
0.00045324061
0.00045234666
0.0004514032
0.00045040694
0.00044935509
0.00044824523
0.00044707538
0.00044584391
0.00044454953
0.00044319125
0.00044176837
0.00044028046
0.00043872731
0.00043710895
0.00043542559
0.00043367764
0.00043186567
0.00042999039
0.00042805266
0.00042605344
0.00042399383
0.00042187501
0.00041969822
0.00041746482
0.00041517619
0.0004128338
0.00041043913
0.00040799373
0.00040549915
0.00040295698
0.00040036881
0.00039773625
0.00039506089
0.00039234433
0.00038958817
0.00038679398
0.00038396332
0.00038109773
0.00037819872
0.00037526779
0.00037230637
0.0003693159
0.00036629776
0.00036325331
0.00036018386
0.00035709069
0.00035397503
0.00035083807
0.00034768098
0.00034450487
0.00034131081
0.00033809983
0.00033487293
0.00033163105
0.00032837511
0.00032510597
0.00032182448
0.00031853141
0.00031522754
0.00031191358
0.00030859021
0.00030525809
0.00030191783
0.00029857001
0.00029521519
0.00029185389
0.00028848661
0.0002851138
0.00028173591
0.00027835335
0.00027496649
0.00027157572
0.00026818135
0.00026478372
0.00026138311
0.00025797982
0.00025457408
0.00025116615
0.00024775624
0.00024434457
0.00024093133
0.00023751669
0.00023410081
0.00023068386
0.00022726596
0.00022384724
0.00022042783
0.00021700783
0.00021358734
0.00021016644
0.00020674521
0.00020332374
0.00019990208
0.0001964803
0.00019305845
0.00018963658
0.00018621472
0.00018279293
0.00017937122
0.00017594963
0.00017252819
0.00016910691
0.00016568582
0.00016226493
0.00015884425
0.00015542379
0.00015200357
0.00014858359
0.00014516384
0.00014174435
0.0001383251
0.0001349061
0.00013148735
0.00012806884
0.00012465057
0.00012123254
0.00011781475
0.00011439718
0.00011097984
0.00010756272
0.00010414582
0.00010072911
9.7312611e-05
9.3896302e-05
9.0480181e-05
8.7064239e-05
8.3648471e-05
8.023287e-05
7.6817429e-05
7.3402141e-05
6.9987001e-05
6.6572002e-05
6.3157138e-05
5.9742403e-05
5.6327791e-05
5.2913296e-05
4.9498914e-05
4.6084638e-05
4.2670465e-05
3.9256388e-05
3.5842404e-05
3.2428509e-05
2.9014697e-05
2.5600965e-05
2.2187309e-05
1.8773725e-05
1.5360208e-05
1.1946754e-05
8.5333529e-06
5.1200247e-06
1.7067751e-06
-0.00069817922
-0.00011071565
0.00014332615
0.0002577348
0.00033968682
0.00039956888
0.00044187422
0.00047192037
0.00049287306
0.00050681198
0.00051541408
0.0005200277
0.00052171151
0.00052129195
0.00051940824
0.00051654947
0.00051308474
0.00050928539
0.00050534907
0.00050141791
0.00049759114
0.00049393537
0.00049049277
0.00048728725
0.00048432925
0.00048161941
0.00047915137
0.00047691387
0.00047489238
0.00047307031
0.00047142988
0.00046995287
0.00046862102
0.00046741647
0.00046632197
0.00046532107
0.00046439821
0.0004635388
0.00046272924
0.00046195695
0.00046121031
0.00046047865
0.00045975224
0.00045902222
0.00045828053
0.00045751991
0.00045673383
0.00045591643
0.00045506249
0.00045416739
0.00045322704
0.00045223787
0.00045119677
0.00045010108
0.00044894854
0.00044773724
0.00044646563
0.0004451325
0.00044373689
0.00044227814
0.00044075583
0.00043916976
0.00043751995
0.00043580661
0.00043403013
0.00043219105
0.00043029006
0.00042832797
0.00042630574
0.0004242244
0.00042208509
0.00041988904
0.00041763753
0.00041533192
0.00041297361
0.00041056407
0.00040810478
0.00040559727
0.00040304306
0.00040044371
0.00039780079
0.00039511584
0.00039239044
0.00038962613
0.00038682445
0.00038398693
0.00038111507
0.00037821034
0.0003752742
0.00037230808
0.00036931336
0.0003662914
0.00036324353
0.00036017104
0.00035707517
0.00035395715
0.00035081813
0.00034765926
0.00034448162
0.00034128628
0.00033807424
0.00033484648
0.00033160393
0.00032834749
0.00032507801
0.00032179631
0.00031850318
0.00031519934
0.00031188553
0.0003085624
0.0003052306
0.00030189073
0.00029854338
0.00029518908
0.00029182835
0.00028846168
0.00028508951
0.00028171229
0.00027833043
0.00027494429
0.00027155424
0.00026816062
0.00026476373
0.00026136387
0.00025796132
0.00025455633
0.00025114913
0.00024773996
0.00024432901
0.00024091647
0.00023750252
0.00023408732
0.00023067102
0.00022725377
0.00022383568
0.00022041688
0.00021699746
0.00021357753
0.00021015718
0.00020673649
0.00020331553
0.00019989436
0.00019647305
0.00019305165
0.0001896302
0.00018620876
0.00018278735
0.00017936602
0.00017594478
0.00017252368
0.00016910272
0.00016568193
0.00016226133
0.00015884092
0.00015542072
0.00015200074
0.00014858098
0.00014516146
0.00014174216
0.0001383231
0.00013490428
0.00013148569
0.00012806734
0.00012464921
0.00012123132
0.00011781365
0.0001143962
0.00011097897
0.00010756194
0.00010414512
0.00010072851
9.7312079e-05
9.389584e-05
9.0479781e-05
8.7063896e-05
8.364818e-05
8.0232625e-05
7.6817225e-05
7.3401974e-05
6.9986865e-05
6.6571894e-05
6.3157054e-05
5.9742339e-05
5.6327743e-05
5.2913262e-05
4.949889e-05
4.6084622e-05
4.2670454e-05
3.925638e-05
3.5842397e-05
3.2428499e-05
2.9014684e-05
2.5600947e-05
2.2187285e-05
1.8773695e-05
1.5360174e-05
1.1946718e-05
8.5333175e-06
5.1199947e-06
1.7067712e-06
0.0004133434
0.0003192988
0.00030560797
0.00033509064
0.00037579469
0.00041362793
0.00044498573
0.00046954143
0.00048775301
0.00050049599
0.00050879159
0.00051359796
0.00051574325
0.00051591741
0.0005146805
0.0005124758
0.00050964115
0.00050643171
0.00050304016
0.00049960702
0.00049623184
0.00049298288
0.0004899046
0.00048702348
0.00048435266
0.00048189542
0.000479648
0.00047760161
0.0004757441
0.00047406113
0.00047253708
0.00047115574
0.00046990079
0.00046875619
0.0004677064
0.00046673655
0.00046583259
0.00046498132
0.00046417044
0.00046338856
0.00046262515
0.00046187058
0.00046111602
0.00046035344
0.00045957556
0.0004587758
0.00045794824
0.00045708757
0.00045618906
0.00045524852
0.00045426224
0.00045322697
0.00045213991
0.00045099864
0.0004498011
0.00044854558
0.00044723068
0.0004458553
0.00044441861
0.00044292001
0.00044135915
0.00043973589
0.00043805027
0.00043630253
0.00043449306
0.00043262241
0.00043069127
0.00042870044
0.00042665084
0.00042454349
0.0004223795
0.00042016006
0.00041788643
0.00041555993
0.00041318193
0.00041075384
0.00040827711
0.00040575321
0.00040318364
0.00040056992
0.00039791356
0.00039521608
0.00039247901
0.00038970384
0.00038689209
0.00038404524
0.00038116475
0.00037825206
0.0003753086
0.00037233574
0.00036933485
0.00036630726
0.00036325426
0.00036017711
0.00035707702
0.00035395519
0.00035081275
0.00034765082
0.00034447047
0.00034127272
0.00033805858
0.00033482898
0.00033158484
0.00032832705
0.00032505643
0.0003217738
0.0003184799
0.00031517548
0.00031186123
0.0003085378
0.00030520583
0.00030186591
0.0002985186
0.00029516444
0.00029180393
0.00028843755
0.00028506575
0.00028168895
0.00027830755
0.00027492192
0.00027153242
0.00026813937
0.00026474309
0.00026134385
0.00025794194
0.0002545376
0.00025113106
0.00024772255
0.00024431226
0.00024090039
0.0002374871
0.00023407255
0.0002306569
0.00022724028
0.00022382281
0.00022040462
0.0002169858
0.00021356646
0.00021014667
0.00020672653
0.0002033061
0.00019988544
0.00019646463
0.00019304371
0.00018962273
0.00018620173
0.00018278075
0.00017935982
0.00017593898
0.00017251825
0.00016909765
0.0001656772
0.00016225692
0.00015883682
0.00015541691
0.00015199721
0.00014857771
0.00014515843
0.00014173937
0.00013832053
0.00013490192
0.00013148352
0.00012806535
0.0001246474
0.00012122967
0.00011781215
0.00011439484
0.00011097773
0.00010756083
0.00010414412
0.00010072761
9.7311279e-05
9.3895128e-05
9.047915e-05
8.7063339e-05
8.364769e-05
8.0232197e-05
7.6816852e-05
7.3401651e-05
6.9986588e-05
6.6571657e-05
6.3156852e-05
5.9742167e-05
5.6327599e-05
5.291314e-05
4.9498788e-05
4.6084536e-05
4.267038e-05
3.9256316e-05
3.5842339e-05
3.2428447e-05
2.9014635e-05
2.5600899e-05
2.2187238e-05
1.8773648e-05
1.5360128e-05
1.1946675e-05
8.5332807e-06
5.1199685e-06
1.7067692e-06
0.00039077928
0.00030624969
0.00030892064
0.00034729147
0.00038296448
0.00041366965
0.00044024704
0.00046190906
0.00047852797
0.00049064927
0.00049898442
0.00050423591
0.00050705627
0.00050802508
0.00050762925
0.00050625935
0.00050422451
0.00050176931
0.00049908004
0.00049629462
0.00049351278
0.00049080449
0.00048821665
0.00048577855
0.00048350619
0.00048140575
0.00047947624
0.00047771158
0.00047610219
0.00047463619
0.00047330031
0.00047208059
0.00047096287
0.00046993313
0.00046897778
0.00046808383
0.00046723896
0.00046643164
0.00046565114
0.0004648875
0.0004641316
0.00046337506
0.00046261024
0.00046183019
0.00046102865
0.00046019993
0.00045933896
0.00045844119
0.00045750257
0.00045651951
0.00045548887
0.0004544079
0.00045327421
0.00045208576
0.00045084085
0.00044953806
0.00044817624
0.00044675449
0.00044527219
0.00044372889
0.00044212436
0.00044045858
0.00043873169
0.00043694397
0.00043509589
0.00043318802
0.00043122108
0.00042919588
0.00042711335
0.00042497452
0.00042278047
0.00042053238
0.00041823149
0.00041587909
0.00041347653
0.00041102517
0.00040852643
0.00040598175
0.00040339259
0.00040076041
0.0003980867
0.00039537293
0.00039262058
0.00038983113
0.00038700603
0.00038414671
0.00038125461
0.00037833114
0.00037537765
0.00037239551
0.00036938605
0.00036635053
0.00036329024
0.00036020638
0.00035710016
0.00035397271
0.00035082516
0.00034765858
0.00034447402
0.00034127247
0.0003380549
0.00033482225
0.00033157539
0.00032831519
0.00032504246
0.00032175797
0.00031846248
0.00031515669
0.00031184128
0.0003085169
0.00030518415
0.00030184362
0.00029849585
0.00029514136
0.00029178066
0.00028841419
0.00028504241
0.00028166571
0.0002782845
0.00027489914
0.00027150997
0.0002681173
0.00026472145
0.0002613227
0.0002579213
0.0002545175
0.00025111153
0.0002477036
0.00024429392
0.00024088266
0.00023746999
0.00023405608
0.00023064106
0.00022722507
0.00022380823
0.00022039066
0.00021697245
0.00021355371
0.00021013452
0.00020671495
0.00020329509
0.00019987499
0.00019645472
0.00019303432
0.00018961384
0.00018619333
0.00018277282
0.00017935235
0.00017593195
0.00017251164
0.00016909144
0.00016567138
0.00016225147
0.00015883173
0.00015541216
0.00015199278
0.00014857359
0.0001451546
0.00014173581
0.00013831724
0.00013489887
0.00013148071
0.00012806276
0.00012464501
0.00012122747
0.00011781014
0.000114393
0.00011097606
0.0001075593
0.00010414274
0.00010072635
9.7310144e-05
9.3894105e-05
9.0478232e-05
8.7062517e-05
8.3646957e-05
8.0231544e-05
7.6816274e-05
7.3401141e-05
6.9986139e-05
6.6571263e-05
6.3156508e-05
5.9741868e-05
5.6327339e-05
5.2912916e-05
4.9498594e-05
4.6084369e-05
4.2670235e-05
3.9256191e-05
3.5842231e-05
3.2428351e-05
2.901455e-05
2.5600824e-05
2.218717e-05
1.8773587e-05
1.5360074e-05
1.1946629e-05
8.5332454e-06
5.1199448e-06
1.7067727e-06
0.00034411585
0.00032663656
0.00033657371
0.00036160418
0.00038689511
0.00041080085
0.00043283562
0.00045168253
0.00046680133
0.00047836197
0.00048677157
0.00049250778
0.00049606506
0.00049790782
0.00049844086
0.000498007
0.00049688962
0.00049531458
0.00049345679
0.00049144864
0.00048938794
0.0004873448
0.00048536751
0.00048348746
0.00048172312
0.00048008332
0.00047856974
0.00047717895
0.00047590399
0.00047473549
0.00047366265
0.00047267385
0.00047175723
0.00047090097
0.00047009362
0.00046932421
0.00046858241
0.00046785855
0.00046714369
0.0004664296
0.00046570873
0.00046497424
0.0004642199
0.00046344011
0.00046262983
0.00046178453
0.0004609002
0.00045997324
0.00045900052
0.00045797924
0.00045690699
0.00045578168
0.00045460153
0.00045336503
0.00045207093
0.00045071824
0.00044930618
0.00044783418
0.00044630189
0.00044470911
0.00044305582
0.00044134216
0.00043956844
0.00043773506
0.00043584257
0.00043389165
0.00043188307
0.00042981769
0.00042769648
0.00042552046
0.00042329076
0.00042100853
0.00041867503
0.00041629151
0.00041385931
0.00041137977
0.00040885427
0.00040628423
0.00040367106
0.00040101619
0.00039832105
0.00039558709
0.00039281575
0.00039000844
0.00038716658
0.00038429157
0.0003813848
0.0003784476
0.00037548133
0.00037248729
0.00036946676
0.00036642099
0.00036335119
0.00036025855
0.00035714423
0.00035400933
0.00035085493
0.00034768209
0.0003444918
0.00034128504
0.00033806274
0.0003348258
0.00033157508
0.0003283114
0.00032503557
0.00032174832
0.00031845039
0.00031514246
0.00031182519
0.0003084992
0.00030516507
0.00030182338
0.00029847465
0.0002951194
0.00029175808
0.00028839116
0.00028501907
0.00028164219
0.0002782609
0.00027487557
0.00027148652
0.00026809406
0.00026469849
0.00026130007
0.00025789907
0.00025449572
0.00025109025
0.00024768285
0.00024427372
0.00024086304
0.00023745098
0.00023403768
0.00023062329
0.00022720793
0.00022379173
0.0002203748
0.00021695723
0.00021353913
0.00021012056
0.00020670162
0.00020328237
0.00019986287
0.00019644318
0.00019302335
0.00018960343
0.00018618346
0.00018276348
0.00017934352
0.00017592361
0.00017250378
0.00016908404
0.00016566442
0.00016224493
0.00015882559
0.00015540641
0.0001519874
0.00014856856
0.00014514991
0.00014173145
0.00013831318
0.0001348951
0.00013147721
0.00012805952
0.00012464202
0.00012122472
0.0001178076
0.00011439067
0.00011097392
0.00010755735
0.00010414095
0.00010072473
9.7308666e-05
9.3892765e-05
9.047702e-05
8.7061425e-05
8.3645975e-05
8.0230664e-05
7.6815488e-05
7.3400441e-05
6.9985518e-05
6.6570714e-05
6.3156025e-05
5.9741445e-05
5.6326969e-05
5.2912594e-05
4.9498314e-05
4.6084127e-05
4.2670027e-05
3.9256011e-05
3.5842076e-05
3.2428219e-05
2.9014437e-05
2.5600726e-05
2.2187087e-05
1.8773517e-05
1.5360016e-05
1.1946582e-05
8.5332116e-06
5.1199228e-06
1.7067777e-06
0.00034747837
0.00034481155
0.00035088129
0.00036655344
0.00038569524
0.00040516238
0.00042364761
0.00044005133
0.0004537622
0.00046470265
0.0004730681
0.00047917253
0.00048337423
0.00048603131
0.00048747675
0.00048800241
0.00048785358
0.00048722972
0.00048628888
0.00048515316
0.0004839145
0.00048264017
0.00048137759
0.0004801586
0.00047900296
0.00047792127
0.0004769173
0.00047598986
0.00047513428
0.00047434354
0.00047360914
0.00047292181
0.00047227194
0.00047164994
0.00047104656
0.00047045297
0.00046986091
0.00046926276
0.00046865151
0.00046802083
0.00046736498
0.00046667885
0.00046595786
0.00046519795
0.00046439556
0.00046354753
0.00046265112
0.00046170394
0.00046070393
0.00045964933
0.00045853865
0.00045737064
0.00045614428
0.00045485877
0.00045351347
0.00045210796
0.00045064195
0.00044911532
0.00044752809
0.00044588041
0.00044417257
0.00044240496
0.0004405781
0.00043869258
0.00043674913
0.00043474853
0.00043269167
0.00043057951
0.00042841305
0.0004261934
0.00042392169
0.00042159912
0.00041922693
0.0004168064
0.00041433883
0.00041182557
0.00040926797
0.0004066674
0.00040402526
0.00040134293
0.00039862182
0.00039586331
0.0003930688
0.00039023966
0.00038737727
0.00038448297
0.0003815581
0.00037860396
0.00037562184
0.000372613
0.00036957868
0.00036652007
0.00036343834
0.00036033464
0.00035721008
0.00035406571
0.0003509026
0.00034772173
0.00034452408
0.00034131057
0.00033808212
0.00033483957
0.00033158376
0.00032831549
0.0003250355
0.00032174453
0.00031844328
0.00031513239
0.0003118125
0.00030848421
0.00030514809
0.00030180467
0.00029845447
0.00029509798
0.00029173564
0.00028836789
0.00028499515
0.00028161778
0.00027823617
0.00027485063
0.00027146151
0.00026806908
0.00026467364
0.00026127545
0.00025787475
0.00025447176
0.00025106671
0.0002476598
0.00024425119
0.00024084108
0.00023742961
0.00023401693
0.00023060318
0.00022718848
0.00022377295
0.00022035669
0.0002169398
0.00021352238
0.00021010449
0.00020668623
0.00020326764
0.0001998488
0.00019642976
0.00019301057
0.00018959127
0.00018617191
0.00018275252
0.00017933313
0.00017591378
0.00017249448
0.00016907527
0.00016565615
0.00016223715
0.00015881827
0.00015539954
0.00015198095
0.00014856253
0.00014514427
0.00014172618
0.00013830827
0.00013489053
0.00013147296
0.00012805558
0.00012463837
0.00012122134
0.00011780448
0.00011438779
0.00011097127
0.00010755492
0.00010413873
0.00010072269
9.7306813e-05
9.389108e-05
9.0475491e-05
8.7060042e-05
8.3644727e-05
8.0229542e-05
7.6814481e-05
7.3399541e-05
6.9984717e-05
6.6570004e-05
6.3155397e-05
5.9740892e-05
5.6326486e-05
5.2912172e-05
4.9497949e-05
4.6083812e-05
4.2669757e-05
3.9255781e-05
3.5841881e-05
3.2428054e-05
2.9014299e-05
2.5600612e-05
2.2186994e-05
1.8773442e-05
1.5359957e-05
1.1946538e-05
8.5331812e-06
5.1199038e-06
1.7067821e-06
0.00035149961
0.00035080939
0.00035533778
0.00036706237
0.00038238758
0.00039842805
0.00041397689
0.00042818892
0.00044047125
0.00045063341
0.0004587493
0.00046501273
0.00046967521
0.00047300806
0.0004752727
0.00047670387
0.00047750324
0.00047783848
0.00047784499
0.00047762923
0.00047727272
0.00047683613
0.00047636309
0.00047588353
0.00047541671
0.00047497358
0.00047455891
0.0004741729
0.00047381254
0.00047347262
0.0004731466
0.00047282718
0.0004725068
0.00047217797
0.00047183349
0.00047146663
0.0004710712
0.00047064162
0.00047017292
0.00046966074
0.00046910127
0.00046849128
0.00046782799
0.00046710908
0.00046633263
0.00046549706
0.00046460111
0.00046364379
0.00046262432
0.00046154217
0.00046039695
0.00045918846
0.00045791661
0.00045658146
0.00045518318
0.00045372201
0.00045219834
0.00045061259
0.00044896531
0.00044725708
0.0004454886
0.00044366059
0.00044177387
0.00043982932
0.00043782785
0.00043577046
0.00043365818
0.00043149209
0.00042927333
0.00042700305
0.00042468247
0.00042231282
0.00041989538
0.00041743143
0.00041492229
0.00041236928
0.00040977376
0.00040713708
0.00040446058
0.00040174564
0.0003989936
0.00039620581
0.00039338362
0.00039052836
0.00038764134
0.00038472386
0.0003817772
0.00037880262
0.00037580135
0.00037277459
0.00036972352
0.0003666493
0.00036355304
0.00036043583
0.00035729872
0.00035414275
0.0003509689
0.00034777813
0.00034457136
0.00034134948
0.00033811336
0.0003348638
0.0003316016
0.00032832752
0.00032504227
0.00032174656
0.00031844103
0.00031512632
0.00031180303
0.00030847173
0.00030513296
0.00030178722
0.00029843502
0.0002950768
0.00029171301
0.00028834405
0.00028497031
0.00028159216
0.00027820995
0.00027482398
0.00027143458
0.00026804202
0.00026464657
0.00026124848
0.00025784798
0.00025444528
0.0002510406
0.00024763412
0.00024422602
0.00024081646
0.00023740558
0.00023399353
0.00023058045
0.00022716644
0.00022375161
0.00022033608
0.00021691992
0.00021350323
0.00021008609
0.00020666856
0.00020325071
0.00019983259
0.00019641427
0.00019299579
0.00018957718
0.0001861585
0.00018273978
0.00017932104
0.00017590232
0.00017248363
0.00016906501
0.00016564646
0.00016222801
0.00015880967
0.00015539145
0.00015197336
0.00014855541
0.0001451376
0.00014171994
0.00013830244
0.00013488509
0.0001314679
0.00012805087
0.00012463401
0.00012121729
0.00011780074
0.00011438434
0.00011096809
0.00010755199
0.00010413604
0.00010072023
9.7304564e-05
9.388903e-05
9.0473627e-05
8.7058351e-05
8.3643198e-05
8.0228164e-05
7.6813243e-05
7.3398433e-05
6.9983729e-05
6.6569126e-05
6.3154621e-05
5.9740209e-05
5.6325887e-05
5.2911651e-05
4.9497498e-05
4.6083424e-05
4.2669426e-05
3.9255501e-05
3.5841647e-05
3.242786e-05
2.901414e-05
2.5600485e-05
2.2186893e-05
1.8773364e-05
1.5359899e-05
1.1946497e-05
8.5331553e-06
5.1198883e-06
1.7067842e-06
0.00035271171
0.00035160986
0.0003547166
0.00036425521
0.00037709421
0.00039067711
0.00040402462
0.00041644277
0.00042740897
0.00043673335
0.00044444825
0.0004506853
0.00045562574
0.0004594711
0.0004624193
0.00046465102
0.00046632404
0.00046757155
0.00046850262
0.00046920418
0.00046974367
0.00047017186
0.00047052566
0.00047083073
0.0004711037
0.00047135422
0.00047158662
0.00047180133
0.000471996
0.00047216646
0.00047230741
0.000472413
0.00047247726
0.00047249439
0.00047245896
0.00047236609
0.0004722115
0.00047199152
0.00047170315
0.00047134396
0.00047091211
0.00047040626
0.00046982555
0.00046916947
0.00046843789
0.00046763094
0.000466749
0.00046579263
0.00046476254
0.00046365956
0.00046248461
0.00046123867
0.0004599228
0.00045853806
0.00045708555
0.0004555664
0.00045398175
0.00045233273
0.00045062051
0.00044884626
0.00044701113
0.00044511633
0.00044316305
0.00044115248
0.00043908587
0.00043696443
0.00043478941
0.00043256209
0.00043028372
0.0004279556
0.00042557903
0.00042315532
0.00042068579
0.00041817176
0.00041561457
0.00041301555
0.00041037604
0.00040769738
0.0004049809
0.00040222792
0.00039943976
0.00039661774
0.00039376313
0.00039087723
0.00038796128
0.00038501654
0.00038204422
0.00037904553
0.00037602163
0.00037297367
0.00036990277
0.00036681003
0.00036369649
0.00036056319