/*--------------------------------*- C++ -*----------------------------------*\
| =========                 |                                                 |
| \\      /  F ield         | OpenFOAM: The Open Source CFD Toolbox           |
|  \\    /   O peration     | Version:  2406                                  |
|   \\  /    A nd           | Website:  www.openfoam.com                      |
|    \\/     M anipulation  |                                                 |
\*---------------------------------------------------------------------------*/
FoamFile
{
    version     2.0;
    format      ascii;
    arch        "LSB;label=32;scalar=64";
    class       surfaceScalarField;
    location    "557";
    object      phi;
}
// * * * * * * * * * * * * * * * * * * * * * * * * * * * * * * * * * * * * * //

dimensions      [0 3 -1 0 0 0 0];

oriented        oriented;

internalField   nonuniform List<scalar> 
13765
(
-3.5631235e-13
3.5631235e-13
-6.4519543e-13
2.8888308e-13
-6.8361884e-13
3.8423413e-14
-5.2390356e-13
-1.5971529e-13
-2.5805422e-13
-2.6584934e-13
3.9911811e-14
-2.9796603e-13
3.2363344e-13
-2.8372162e-13
5.7044536e-13
-2.4681192e-13
7.731248e-13
-2.0267944e-13
9.3275158e-13
-1.5962678e-13
1.0541429e-12
-1.2139135e-13
1.143285e-12
-8.9142048e-14
1.2060401e-12
-6.2755156e-14
1.2476006e-12
-4.1560452e-14
1.2723352e-12
-2.4734595e-14
1.2838202e-12
-1.1485068e-14
1.284942e-12
-1.1217825e-15
1.2780132e-12
6.9288281e-15
1.2648801e-12
1.3133123e-14
1.2470178e-12
1.786225e-14
1.225608e-12
2.1409802e-14
1.2016001e-12
2.4007934e-14
1.1757592e-12
2.5840934e-14
1.1487032e-12
2.7055949e-14
1.1209319e-12
2.7771262e-14
1.0928493e-12
2.808261e-14
1.0647813e-12
2.8068001e-14
1.03699e-12
2.7791374e-14
1.0096845e-12
2.7305414e-14
9.8303083e-13
2.6653717e-14
9.5715835e-13
2.5872482e-14
9.3216652e-13
2.4991833e-14
9.0812963e-13
2.4036882e-14
8.8510107e-13
2.3028567e-14
8.6311673e-13
2.1984339e-14
8.42198e-13
2.0918724e-14
8.2235422e-13
1.9843781e-14
8.0358474e-13
1.8769485e-14
7.8588069e-13
1.770405e-14
7.692265e-13
1.6654192e-14
7.5360114e-13
1.5625359e-14
7.3897922e-13
1.462192e-14
7.2533189e-13
1.3647331e-14
7.1262761e-13
1.2704273e-14
7.0083284e-13
1.1794768e-14
6.8991256e-13
1.0920282e-14
6.7983075e-13
1.0081811e-14
6.705508e-13
9.2799544e-15
6.6203582e-13
8.5149795e-15
6.5424894e-13
7.7868738e-15
6.4715355e-13
7.0953917e-15
6.4071346e-13
6.4400943e-15
6.3489308e-13
5.8203824e-15
6.2965755e-13
5.2355258e-15
6.2497286e-13
4.6846871e-15
6.2080592e-13
4.166943e-15
6.1712462e-13
3.6813022e-15
6.138979e-13
3.2267202e-15
6.1109578e-13
2.8021125e-15
6.0868942e-13
2.406366e-15
6.0665107e-13
2.038348e-15
6.0495416e-13
1.696915e-15
6.0357324e-13
1.3809193e-15
6.0248402e-13
1.0892152e-15
6.0166336e-13
8.2066446e-16
6.0108921e-13
5.7414054e-16
6.0074068e-13
3.4853277e-16
6.0059793e-13
1.4274972e-16
6.0064221e-13
-4.4277688e-17
6.008558e-13
-2.1359355e-16
6.0122202e-13
-3.6621569e-16
6.0172515e-13
-5.0313356e-16
6.0235046e-13
-6.2530509e-16
6.0308411e-13
-7.3365713e-16
6.039132e-13
-8.2908424e-16
6.0482565e-13
-9.1244871e-16
6.0581022e-13
-9.8457965e-16
6.068565e-13
-1.0462712e-15
6.0795478e-13
-1.0982824e-15
6.0909612e-13
-1.1413383e-15
6.1027225e-13
-1.1761303e-15
6.1147556e-13
-1.2033166e-15
6.1269908e-13
-1.2235221e-15
6.1393642e-13
-1.2373394e-15
6.1518175e-13
-1.2453291e-15
6.1642977e-13
-1.2480206e-15
6.1767568e-13
-1.2459129e-15
6.1891516e-13
-1.2394758e-15
6.2014431e-13
-1.22915e-15
6.2135966e-13
-1.2153492e-15
6.2255812e-13
-1.19846e-15
6.2373696e-13
-1.1788437e-15
6.248938e-13
-1.1568371e-15
6.2602655e-13
-1.1327536e-15
6.2713343e-13
-1.106884e-15
6.2821293e-13
-1.079498e-15
6.2926377e-13
-1.0508444e-15
6.3028493e-13
-1.0211532e-15
6.3127556e-13
-9.9063584e-16
6.3223505e-13
-9.5948637e-16
6.3316293e-13
-9.2788235e-16
6.3405892e-13
-8.9598595e-16
6.3492286e-13
-8.6394441e-16
6.3575475e-13
-8.3189136e-16
6.365547e-13
-7.9994742e-16
6.3732292e-13
-7.6822117e-16
6.3805973e-13
-7.3680955e-16
6.3876552e-13
-7.0579924e-16
6.3944079e-13
-6.7526629e-16
6.4008607e-13
-6.4527805e-16
6.4070196e-13
-6.1589279e-16
6.4128912e-13
-5.8716104e-16
6.4184824e-13
-5.5912591e-16
6.4238006e-13
-5.3182366e-16
6.4288535e-13
-5.0528409e-16
6.4336488e-13
-4.7953129e-16
6.4381946e-13
-4.5458367e-16
6.4424991e-13
-4.3045496e-16
6.4465707e-13
-4.071544e-16
6.4504175e-13
-3.8468725e-16
6.4540481e-13
-3.630549e-16
6.4574706e-13
-3.4225562e-16
6.4606935e-13
-3.2228424e-16
6.4637248e-13
-3.0313323e-16
6.4665727e-13
-2.8479261e-16
6.4692452e-13
-2.6725043e-16
6.4717501e-13
-2.5049263e-16
6.4740951e-13
-2.3450396e-16
6.4762878e-13
-2.1926697e-16
6.4783354e-13
-2.0476368e-16
6.4802451e-13
-1.9097464e-16
6.4820239e-13
-1.7787981e-16
6.4836784e-13
-1.6545874e-16
6.4852153e-13
-1.5369028e-16
6.4866408e-13
-1.4255291e-16
6.4879611e-13
-1.3202486e-16
6.4891819e-13
-1.2208391e-16
6.490309e-13
-1.1270797e-16
6.4913477e-13
-1.0387519e-16
6.4923033e-13
-9.5563768e-17
6.4931808e-13
-8.7752126e-17
6.493985e-13
-8.0418947e-17
6.4947204e-13
-7.3542973e-17
6.4953914e-13
-6.7103436e-17
6.4960022e-13
-6.1080293e-17
6.4965568e-13
-5.5453559e-17
6.4970588e-13
-5.0204309e-17
6.4975119e-13
-4.531353e-17
6.4979196e-13
-4.0763242e-17
6.4982849e-13
-3.6535562e-17
6.498611e-13
-3.2613576e-17
6.4989008e-13
-2.8980631e-17
6.499157e-13
-2.5620907e-17
6.4993822e-13
-2.2519172e-17
6.4995788e-13
-1.9660583e-17
6.4997491e-13
-1.7031135e-17
6.4998953e-13
-1.4616982e-17
6.5000193e-13
-1.2405192e-17
6.5001231e-13
-1.0383371e-17
6.5002085e-13
-8.5398281e-18
6.5002771e-13
-6.8632965e-18
6.5003305e-13
-5.3431385e-18
6.5003702e-13
-3.9689348e-18
6.5003975e-13
-2.7310456e-18
6.5004137e-13
-1.6201908e-18
6.5004199e-13
-6.2780031e-19
6.5004174e-13
2.5447077e-19
6.500407e-13
1.0341989e-18
6.5003898e-13
1.7189688e-18
6.5003667e-13
2.3154553e-18
6.5003383e-13
2.8303735e-18
6.5003056e-13
3.2696751e-18
6.5002692e-13
3.6393223e-18
6.5002298e-13
3.9444535e-18
6.5001879e-13
4.1905598e-18
6.500144e-13
4.3820882e-18
6.5000988e-13
4.5237382e-18
6.5000526e-13
4.6194334e-18
6.5000059e-13
4.6731406e-18
6.499959e-13
4.6880815e-18
6.4999123e-13
4.6681733e-18
6.4998661e-13
4.6161899e-18
6.4998208e-13
4.5352192e-18
6.4997765e-13
4.4281328e-18
6.4997336e-13
4.2965391e-18
6.4996922e-13
4.1433599e-18
6.4996525e-13
3.9693362e-18
6.4996148e-13
3.7769566e-18
6.4995792e-13
3.5659984e-18
6.4995459e-13
3.3378717e-18
6.499515e-13
3.090348e-18
6.4994868e-13
2.8223485e-18
6.4994616e-13
2.5280095e-18
6.4994396e-13
2.2010384e-18
6.4994214e-13
1.8304911e-18
6.4994074e-13
1.4044934e-18
6.4993982e-13
9.1604505e-19
6.4993945e-13
3.7763678e-19
6.4993967e-13
-2.1618984e-19
-8.0302803e-19
-5.3612121e-13
8.9243356e-13
-8.2953499e-13
5.8229686e-13
-6.42154e-13
-1.4895758e-13
-1.4763632e-13
-6.5423296e-13
4.8073477e-13
-8.9422043e-13
1.1250058e-12
-9.4223706e-13
1.7181153e-12
-8.7683113e-13
2.229822e-12
-7.5851862e-13
2.6520717e-12
-6.2492912e-13
2.9884761e-12
-4.9603118e-13
3.2479542e-12
-3.808695e-13
3.4411826e-12
-2.8237044e-13
3.5787463e-12
-2.0031882e-13
3.6702854e-12
-1.3309952e-13
3.7241916e-12
-7.8640853e-14
3.7475863e-12
-3.4879708e-14
3.7464259e-12
3.8543691e-17
3.7256503e-12
2.7704424e-14
3.6893378e-12
4.9445606e-14
3.6408512e-12
6.6348915e-14
3.5829649e-12
7.929607e-14
3.5179713e-12
8.9001505e-14
3.4477668e-12
9.6045519e-14
3.3739212e-12
1.0090152e-13
3.2977347e-12
1.0395776e-13
3.2202828e-12
1.0553448e-13
3.1424535e-12
1.0589728e-13
3.0649774e-12
1.0526754e-13
2.9884522e-12
1.0383059e-13
2.9133638e-12
1.0174216e-13
2.8401028e-12
9.9133453e-14
2.7689794e-12
9.6115228e-14
2.7002352e-12
9.2781104e-14
2.6340535e-12
8.9210228e-14
2.5705684e-12
8.5469481e-14
2.5098718e-12
8.1615304e-14
2.4520203e-12
7.769523e-14
2.3970407e-12
7.3749162e-14
2.3449342e-12
6.9810462e-14
2.2956816e-12
6.590688e-14
2.2492456e-12
6.206134e-14
2.2055749e-12
5.8292621e-14
2.1646063e-12
5.4615938e-14
2.1262671e-12
5.104345e-14
2.0904772e-12
4.758469e-14
2.0571505e-12
4.4246944e-14
2.0261967e-12
4.1035572e-14
1.9975224e-12
3.7954294e-14
1.971032e-12
3.5005429e-14
1.9466287e-12
3.219011e-14
1.9242157e-12
2.9508462e-14
1.903696e-12
2.6959762e-14
1.8849738e-12
2.4542576e-14
1.8679544e-12
2.2254872e-14
1.852545e-12
2.0094126e-14
1.8386545e-12
1.8057407e-14
1.8261944e-12
1.6141455e-14
1.8150784e-12
1.4342744e-14
1.8052229e-12
1.2657538e-14
1.7965474e-12
1.1081942e-14
1.7889738e-12
9.6119423e-15
1.7824272e-12
8.2434439e-15
1.7768359e-12
6.9723014e-15
1.7721307e-12
5.7943472e-15
1.768246e-12
4.7054144e-15
1.7651188e-12
3.701358e-15
1.7626892e-12
2.7780728e-15
1.7609005e-12
1.9315087e-15
1.7596985e-12
1.1576842e-15
1.7590322e-12
4.5269807e-16
1.7588532e-12
-1.8726107e-16
1.759116e-12
-7.6590428e-16
1.7597776e-12
-1.2868406e-15
1.7607975e-12
-1.7535647e-15
1.7621378e-12
-2.169457e-15
1.7637632e-12
-2.5377805e-15
1.7656403e-12
-2.8616779e-15
1.7677382e-12
-3.1441657e-15
1.770028e-12
-3.3881333e-15
1.772483e-12
-3.5963457e-15
1.7750783e-12
-3.7714438e-15
1.777791e-12
-3.9159456e-15
1.7805997e-12
-4.0322469e-15
1.783485e-12
-4.1226228e-15
1.7864289e-12
-4.1892302e-15
1.7894149e-12
-4.2341097e-15
1.7924282e-12
-4.2591893e-15
1.795455e-12
-4.2662867e-15
1.798483e-12
-4.2571129e-15
1.8015009e-12
-4.2332757e-15
1.8044987e-12
-4.1962834e-15
1.8074674e-12
-4.1475481e-15
1.810399e-12
-4.08839e-15
1.8132863e-12
-4.0200411e-15
1.816123e-12
-3.9436484e-15
1.8189038e-12
-3.8602783e-15
1.8216239e-12
-3.7709199e-15
1.8242792e-12
-3.676489e-15
1.8268664e-12
-3.5778317e-15
1.8293827e-12
-3.4757279e-15
1.8318257e-12
-3.3708944e-15
1.8341937e-12
-3.2639889e-15
1.8364854e-12
-3.1556125e-15
1.8386998e-12
-3.0463135e-15
1.8408364e-12
-2.9365904e-15
1.8428951e-12
-2.8268946e-15
1.8448759e-12
-2.7176334e-15
1.8467793e-12
-2.6091727e-15
1.8486059e-12
-2.5018393e-15
1.8503565e-12
-2.3959239e-15
1.8520323e-12
-2.2916831e-15
1.8536345e-12
-2.1893426e-15
1.8551644e-12
-2.0890985e-15
1.8566237e-12
-1.9911197e-15
1.858014e-12
-1.8955501e-15
1.859337e-12
-1.8025098e-15
1.8605945e-12
-1.7120976e-15
1.8617884e-12
-1.6243925e-15
1.8629207e-12
-1.5394554e-15
1.8639934e-12
-1.457331e-15
1.8650084e-12
-1.3780484e-15
1.8659677e-12
-1.301623e-15
1.8668735e-12
-1.2280575e-15
1.8677277e-12
-1.1573435e-15
1.8685324e-12
-1.0894627e-15
1.8692895e-12
-1.0243878e-15
1.8700011e-12
-9.6208334e-16
1.8706691e-12
-9.0250677e-16
1.8712954e-12
-8.456088e-16
1.871882e-12
-7.9133508e-16
1.8724306e-12
-7.3962624e-16
1.8729432e-12
-6.9041945e-16
1.8734214e-12
-6.4364856e-16
1.8738669e-12
-5.9924492e-16
1.8742815e-12
-5.5713728e-16
1.8746667e-12
-5.1725273e-16
1.8750242e-12
-4.7951678e-16
1.8753553e-12
-4.4385445e-16
1.8756616e-12
-4.1019042e-16
1.8759445e-12
-3.784496e-16
1.8762053e-12
-3.4855671e-16
1.8764453e-12
-3.2043699e-16
1.8766658e-12
-2.9401612e-16
1.8768679e-12
-2.6922104e-16
1.8770528e-12
-2.4597992e-16
1.8772216e-12
-2.2422236e-16
1.8773752e-12
-2.0387949e-16
1.8775148e-12
-1.8488388e-16
1.8776412e-12
-1.6716987e-16
1.8777554e-12
-1.506735e-16
1.8778581e-12
-1.3533275e-16
1.8779502e-12
-1.2108747e-16
1.8780324e-12
-1.0787959e-16
1.8781056e-12
-9.5653234e-17
1.8781703e-12
-8.4354133e-17
1.8782271e-12
-7.3930198e-17
1.8782769e-12
-6.4331037e-17
1.87832e-12
-5.5508625e-17
1.878357e-12
-4.7416997e-17
1.8783885e-12
-4.001253e-17
1.8784148e-12
-3.3253169e-17
1.8784366e-12
-2.7098833e-17
1.8784541e-12
-2.1511067e-17
1.8784679e-12
-1.6453421e-17
1.8784781e-12
-1.1891345e-17
1.8784853e-12
-7.7920649e-18
1.8784897e-12
-4.1245573e-18
1.8784916e-12
-8.5937265e-19
1.8784912e-12
2.0313544e-18
1.878489e-12
4.5738192e-18
1.878485e-12
6.7929486e-18
1.8784796e-12
8.7121084e-18
1.8784729e-12
1.0353415e-17
1.8784651e-12
1.1737644e-17
1.8784564e-12
1.2884382e-17
1.8784469e-12
1.3811956e-17
1.8784369e-12
1.4537523e-17
1.8784265e-12
1.5076969e-17
1.8784157e-12
1.5445157e-17
1.8784047e-12
1.5656053e-17
1.8783937e-12
1.5722885e-17
1.8783826e-12
1.5657847e-17
1.8783717e-12
1.5472357e-17
1.8783609e-12
1.5176509e-17
1.8783505e-12
1.4779416e-17
1.8783403e-12
1.4289388e-17
1.8783306e-12
1.3713269e-17
1.8783213e-12
1.3057183e-17
1.8783126e-12
1.232489e-17
1.8783044e-12
1.1518431e-17
1.8782969e-12
1.0635879e-17
1.87829e-12
9.6717049e-18
1.8782839e-12
8.613929e-18
1.8782787e-12
7.4452031e-18
1.8782744e-12
6.1425487e-18
1.8782711e-12
4.6849786e-18
1.878269e-12
3.070853e-18
1.878268e-12
1.3601175e-18
1.8782681e-12
-2.8954577e-19
-1.5098544e-18
-3.7075671e-13
1.2631903e-12
-7.6619422e-14
2.8815957e-13
6.9187379e-13
-9.174508e-13
1.5868556e-12
-1.5492148e-12
2.4573028e-12
-1.7646677e-12
3.2420749e-12
-1.7270091e-12
3.9191386e-12
-1.5538948e-12
4.4860976e-12
-1.3254776e-12
4.9492244e-12
-1.0880559e-12
5.3181772e-12
-8.6498397e-13
5.6037292e-12
-6.6642149e-13
5.8166683e-12
-4.9530954e-13
5.9672103e-12
-3.5086088e-13
6.064702e-12
-2.3059122e-13
6.1175001e-12
-1.314389e-13
6.1329585e-12
-5.0338105e-14
6.1174762e-12
1.5520786e-14
6.076572e-12
6.8608663e-14
6.014981e-12
1.1103657e-13
5.9367552e-12
1.4457478e-13
5.8453548e-12
1.7069645e-13
5.743731e-12
1.9062531e-13
5.6343975e-12
2.0537903e-13
5.5194926e-12
2.1580642e-13
5.4008321e-12
2.2261826e-13
5.2799542e-12
2.2641233e-13
5.158158e-12
2.2769346e-13
5.0365359e-12
2.2688968e-13
4.9160014e-12
2.2436509e-13
4.7973134e-12
2.2043021e-13
4.6810964e-12
2.1535045e-13
4.5678587e-12
2.0935289e-13
4.4580078e-12
2.0263196e-13
4.3518639e-12
1.9535413e-13
4.2496717e-12
1.8766176e-13
4.1516105e-12
1.7967647e-13
4.0578038e-12
1.715019e-13
3.9683269e-12
1.632261e-13
3.8832137e-12
1.5492361e-13
3.8024634e-12
1.4665723e-13
3.7260452e-12
1.3847955e-13
3.6539035e-12
1.3043428e-13
3.585962e-12
1.2255744e-13
3.5221271e-12
1.1487836e-13
3.4622912e-12
1.0742058e-13
3.4063356e-12
1.0020261e-13
3.3541325e-12
9.3238644e-14
3.3055476e-12
8.6539128e-14
3.2604418e-12
8.0111291e-14
3.2186723e-12
7.3959603e-14
3.1800946e-12
6.8086171e-14
3.1445633e-12
6.249109e-14
3.1119331e-12
5.7172745e-14
3.0820599e-12
5.2128077e-14
3.0548012e-12
4.7352814e-14
3.0300169e-12
4.2841671e-14
3.0075699e-12
3.8588529e-14
2.987326e-12
3.4586583e-14
2.9691551e-12
3.0828478e-14
2.9529306e-12
2.7306424e-14
2.9385302e-12
2.4012295e-14
2.925836e-12
2.093772e-14
2.9147341e-12
1.8074157e-14
2.9051155e-12
1.5412959e-14
2.8968755e-12
1.2945435e-14
2.8899139e-12
1.0662896e-14
2.8841353e-12
8.5567031e-15
2.8794485e-12
6.6183028e-15
2.8757669e-12
4.8392607e-15
2.8730083e-12
3.21129e-15
2.8710948e-12
1.7262755e-15
2.8699526e-12
3.762946e-16
2.8695121e-12
-8.4636432e-16
2.8697078e-12
-1.9491861e-15
2.8704777e-12
-2.9394256e-15
2.871764e-12
-3.8240914e-15
2.8735123e-12
-4.6099441e-15
2.8756716e-12
-5.3034832e-15
2.8781944e-12
-5.9109458e-15
2.8810364e-12
-6.4383088e-15
2.8841562e-12
-6.89129e-15
2.8875156e-12
-7.2753472e-15
2.8910791e-12
-7.5956811e-15
2.8948137e-12
-7.8572375e-15
2.8986892e-12
-8.0647119e-15
2.9026776e-12
-8.2225541e-15
2.9067534e-12
-8.3349747e-15
2.9108931e-12
-8.4059501e-15
2.9150752e-12
-8.4392305e-15
2.9192802e-12
-8.4383458e-15
2.9234906e-12
-8.406614e-15
2.9276902e-12
-8.3471482e-15
2.9318646e-12
-8.2628645e-15
2.9360011e-12
-8.1564901e-15
2.940088e-12
-8.0305707e-15
2.9441152e-12
-7.8874782e-15
2.9480737e-12
-7.7294191e-15
2.9519557e-12
-7.5584417e-15
2.9557543e-12
-7.3764441e-15
2.9594637e-12
-7.1851812e-15
2.9630791e-12
-6.986272e-15
2.9665963e-12
-6.7812065e-15
2.9700121e-12
-6.571353e-15
2.9733237e-12
-6.3579642e-15
2.9765293e-12
-6.1421845e-15
2.9796275e-12
-5.9250554e-15
2.9826174e-12
-5.707522e-15
2.9854986e-12
-5.4904383e-15
2.9882714e-12
-5.2745732e-15
2.990936e-12
-5.0606155e-15
2.9934935e-12
-4.8491796e-15
2.995945e-12
-4.6408101e-15
2.9982919e-12
-4.4359869e-15
3.0005359e-12
-4.2351291e-15
3.0026789e-12
-4.0385996e-15
3.0047231e-12
-3.8467087e-15
3.0066708e-12
-3.6597188e-15
3.0085242e-12
-3.4778476e-15
3.010286e-12
-3.3012719e-15
3.0119588e-12
-3.1301309e-15
3.0135453e-12
-2.9645293e-15
3.0150482e-12
-2.8045397e-15
3.0164704e-12
-2.6502062e-15
3.0178146e-12
-2.5015468e-15
3.0190837e-12
-2.3585562e-15
3.0202805e-12
-2.2212077e-15
3.0214079e-12
-2.0894559e-15
3.0224686e-12
-1.9632377e-15
3.0234654e-12
-1.8424753e-15
3.0244012e-12
-1.727077e-15
3.0252785e-12
-1.6169402e-15
3.0261e-12
-1.5119522e-15
3.0268684e-12
-1.4119921e-15
3.0275861e-12
-1.3169317e-15
3.0282555e-12
-1.2266366e-15
3.0288793e-12
-1.1409673e-15
3.0294595e-12
-1.0597803e-15
3.0299986e-12
-9.8292945e-16
3.0304987e-12
-9.1026698e-16
3.0309619e-12
-8.4164383e-16
3.0313902e-12
-7.7691042e-16
3.0317857e-12
-7.1591681e-16
3.0321502e-12
-6.5851394e-16
3.0324855e-12
-6.0455411e-16
3.0327934e-12
-5.5389147e-16
3.0330756e-12
-5.0638259e-16
3.0333336e-12
-4.6188626e-16
3.033569e-12
-4.2026422e-16
3.0337832e-12
-3.8138104e-16
3.0339776e-12
-3.4510478e-16
3.0341536e-12
-3.1130683e-16
3.0343124e-12
-2.7986233e-16
3.0344551e-12
-2.5065044e-16
3.034583e-12
-2.2355398e-16
3.0346971e-12
-1.9845981e-16
3.0347985e-12
-1.7525826e-16
3.034888e-12
-1.5384401e-16
3.0349666e-12
-1.3411571e-16
3.0350351e-12
-1.1597658e-16
3.0350944e-12
-9.9333772e-17
3.0351453e-12
-8.4098356e-17
3.0351884e-12
-7.0184907e-17
3.0352244e-12
-5.7511958e-17
3.0352539e-12
-4.6001825e-17
3.0352776e-12
-3.5580733e-17
3.035296e-12
-2.6178559e-17
3.0353096e-12
-1.772875e-17
3.0353189e-12
-1.0168021e-17
3.0353244e-12
-3.4366336e-18
3.0353264e-12
2.5221272e-18
3.0353254e-12
7.7618068e-18
3.0353218e-12
1.2333178e-17
3.0353159e-12
1.6283985e-17
3.035308e-12
1.9659382e-17
3.0352983e-12
2.2501701e-17
3.0352873e-12
2.4850816e-17
3.0352751e-12
2.6744e-17
3.035262e-12
2.821618e-17
3.0352481e-12
2.9299986e-17
3.0352337e-12
3.0026238e-17
3.035219e-12
3.0423595e-17
3.0352042e-12
3.0518886e-17
3.0351893e-12
3.0336986e-17
3.0351746e-12
2.9900087e-17
3.0351601e-12
2.9229276e-17
3.0351461e-12
2.8342321e-17
3.0351325e-12
2.7256197e-17
3.0351196e-12
2.5983696e-17
3.0351074e-12
2.4535843e-17
3.035096e-12
2.2917616e-17
3.0350855e-12
2.1130042e-17
3.035076e-12
1.9165216e-17
3.0350676e-12
1.7008216e-17
3.0350605e-12
1.4634391e-17
3.0350546e-12
1.2015742e-17
3.0350501e-12
9.1327144e-18
3.0350472e-12
6.0076839e-18
3.0350458e-12
2.7722347e-18
3.0350457e-12
-2.2765924e-19
-2.2861236e-18
4.331415e-13
8.3004878e-13
2.1040355e-12
-1.3827345e-12
3.6398309e-12
-2.4532462e-12
4.811435e-12
-2.7208189e-12
5.6935775e-12
-2.6468101e-12
6.3703139e-12
-2.4037455e-12
6.9025832e-12
-2.086164e-12
7.3282708e-12
-1.7511653e-12
7.669268e-12
-1.4290531e-12
7.9386361e-12
-1.1343521e-12
8.1451378e-12
-8.7292321e-13
8.2955941e-12
-6.4576585e-13
8.3959831e-12
-4.512499e-13
8.4518805e-12
-2.8648855e-13
8.468587e-12
-1.4814538e-13
8.4511297e-12
-3.2880853e-14
8.4042149e-12
6.2435583e-14
8.3321905e-12
1.4063303e-13
8.2390358e-12
2.041913e-13
8.1283597e-12
2.552509e-13
8.0034071e-12
2.9564906e-13
7.8670742e-12
3.2695817e-13
7.72193e-12
3.505233e-13
7.57024e-12
3.6749637e-13
7.4139922e-12
3.788661e-13
7.2549213e-12
3.8548323e-13
7.0945331e-12
3.8808167e-13
6.9341268e-12
3.8729597e-13
6.774816e-12
3.8367585e-13
6.617548e-12
3.7769818e-13
6.4631215e-12
3.6977702e-13
6.3122024e-12
3.6027198e-13
6.165339e-12
3.4949533e-13
6.0229751e-12
3.3771802e-13
5.8854621e-12
3.2517479e-13
5.7530699e-12
3.1206868e-13
5.625997e-12
2.985748e-13
5.5043793e-12
2.8484379e-13
5.3882982e-12
2.7100466e-13
5.277788e-12
2.5716746e-13
5.1728421e-12
2.434255e-13
5.0734189e-12
2.2985741e-13
4.9794475e-12
2.1652888e-13
4.8908315e-12
2.0349431e-13
4.807454e-12
1.9079811e-13
4.7291805e-12
1.7847606e-13
4.6558629e-12
1.6655633e-13
4.5873415e-12
1.5506047e-13
4.5234485e-12
1.4400431e-13
4.4640094e-12
1.333987e-13
4.4088454e-12
1.2325019e-13
4.3577749e-12
1.1356164e-13
4.3106149e-12
1.0433272e-13
4.2671825e-12
9.5560412e-14
4.227296e-12
8.7239384e-14
4.1907753e-12
7.936237e-14
4.1574433e-12
7.1920482e-14
4.1271264e-12
6.4903482e-14
4.0996549e-12
5.8300032e-14
4.0748634e-12
5.2097901e-14
4.0525915e-12
4.6284157e-14
4.0326839e-12
4.0845327e-14
4.0149905e-12
3.5767542e-14
3.9993668e-12
3.1036663e-14
3.9856739e-12
2.6638387e-14
3.9737784e-12
2.2558347e-14
3.9635529e-12
1.8782195e-14
3.9548756e-12
1.529567e-14
3.9476302e-12
1.2084666e-14
3.9417062e-12
9.1352838e-15
3.9369986e-12
6.4338764e-15
3.9334078e-12
3.9670911e-15
3.9308395e-12
1.7219027e-15
3.9292047e-12
-3.1436166e-16
3.9284192e-12
-2.1539866e-15
3.928404e-12
-3.8088689e-15
3.9290846e-12
-5.2904946e-15
3.930391e-12
-6.6099264e-15
3.9322579e-12
-7.7778002e-15
3.9346239e-12
-8.8043243e-15
3.9374319e-12
-9.6992762e-15
3.9406285e-12
-1.0472001e-14
3.9441643e-12
-1.1131416e-14
3.947993e-12
-1.168601e-14
3.9520722e-12
-1.2143858e-14
3.9563622e-12
-1.2512621e-14
3.9608268e-12
-1.2799558e-14
3.9654324e-12
-1.3011539e-14
3.9701482e-12
-1.315505e-14
3.9749461e-12
-1.3236208e-14
3.9798002e-12
-1.3260773e-14
3.9846873e-12
-1.3234159e-14
3.9895858e-12
-1.3161448e-14
3.9944767e-12
-1.3047399e-14
3.9993426e-12
-1.2896468e-14
4.004168e-12
-1.2712814e-14
4.0089389e-12
-1.2500316e-14
4.013643e-12
-1.2262582e-14
4.0182695e-12
-1.2002965e-14
4.0228089e-12
-1.1724576e-14
4.0272529e-12
-1.1430289e-14
4.0315945e-12
-1.1122763e-14
4.0358276e-12
-1.0804443e-14
4.0399472e-12
-1.0477578e-14
4.0439493e-12
-1.0144232e-14
4.0478305e-12
-9.8062882e-15
4.0515884e-12
-9.4654664e-15
4.0552213e-12
-9.1233272e-15
4.058728e-12
-8.7812843e-15
4.062108e-12
-8.4406122e-15
4.0653613e-12
-8.1024558e-15
4.0684883e-12
-7.7678382e-15
4.07149e-12
-7.437669e-15
4.0743676e-12
-7.1127513e-15
4.0771228e-12
-6.7937896e-15
4.0797575e-12
-6.4813957e-15
4.0822739e-12
-6.1760965e-15
4.0846744e-12
-5.87834e-15
4.0869616e-12
-5.5885011e-15
4.0891384e-12
-5.3068875e-15
4.0912076e-12
-5.0337449e-15
4.0931723e-12
-4.7692618e-15
4.0950357e-12
-4.513575e-15
4.0968009e-12
-4.2667739e-15
4.0984712e-12
-4.0289054e-15
4.10005e-12
-3.7999768e-15
4.1015405e-12
-3.5799607e-15
4.1029461e-12
-3.3687975e-15
4.10427e-12
-3.1663994e-15
4.1055155e-12
-2.9726533e-15
4.106686e-12
-2.7874244e-15
4.1077846e-12
-2.6105586e-15
4.1088145e-12
-2.4418854e-15
4.1097788e-12
-2.2812192e-15
4.1106805e-12
-2.1283622e-15
4.1115227e-12
-1.9831061e-15
4.1123081e-12
-1.8452338e-15
4.1130397e-12
-1.7145222e-15
4.1137202e-12
-1.5907431e-15
4.1143522e-12
-1.4736644e-15
4.1149384e-12
-1.3630515e-15
4.1154811e-12
-1.2586683e-15
4.1159829e-12
-1.1602784e-15
4.116446e-12
-1.0676466e-15
4.1168726e-12
-9.8053945e-16
4.1172649e-12
-8.9872607e-16
4.117625e-12
-8.2197851e-16
4.1179548e-12
-7.5007259e-16
4.1182563e-12
-6.8278823e-16
4.1185311e-12
-6.1991014e-16
4.118781e-12
-5.61228e-16
4.1190077e-12
-5.0653704e-16
4.1192126e-12
-4.5563843e-16
4.1193974e-12
-4.0833881e-16
4.1195634e-12
-3.6445103e-16
4.1197119e-12
-3.2379363e-16
4.1198443e-12
-2.8619176e-16
4.1199616e-12
-2.5147704e-16
4.1200652e-12
-2.1948811e-16
4.1201559e-12
-1.9006948e-16
4.1202349e-12
-1.6307219e-16
4.120303e-12
-1.3835299e-16
4.1203613e-12
-1.1577509e-16
4.1204105e-12
-9.5207889e-17
4.1204514e-12
-7.6526976e-17
4.1204849e-12
-5.9613889e-17
4.1205115e-12
-4.4355901e-17
4.120532e-12
-3.064583e-17
4.1205469e-12
-1.8382297e-17
4.1205569e-12
-7.4686873e-18
4.1205625e-12
2.1861222e-18
4.1205641e-12
1.0668851e-17
4.1205624e-12
1.8061068e-17
4.1205576e-12
2.4440001e-17
4.1205502e-12
2.987804e-17
4.1205406e-12
3.4443721e-17
4.1205291e-12
3.820097e-17
4.1205161e-12
4.1210265e-17
4.1205019e-12
4.3527959e-17
4.1204867e-12
4.5207397e-17
4.1204709e-12
4.6297954e-17
4.1204545e-12
4.6846334e-17
4.120438e-12
4.6895027e-17
4.1204214e-12
4.648389e-17
4.120405e-12
4.564888e-17
4.1203889e-12
4.4423004e-17
4.1203733e-12
4.2835399e-17
4.1203584e-12
4.0911116e-17
4.1203442e-12
3.8670113e-17
4.120331e-12
3.6126067e-17
4.1203189e-12
3.328502e-17
4.1203079e-12
3.0143489e-17
4.1202982e-12
2.6687872e-17
4.12029e-12
2.289525e-17
4.1202832e-12
1.8741262e-17
4.1202782e-12
1.4219605e-17
4.1202748e-12
9.3870501e-18
4.1202731e-12
4.4557618e-18
4.1202729e-12
-4.9473065e-20
-3.0849601e-18
4.816463e-12
-3.9864142e-12
7.6247235e-12
-4.190995e-12
8.9613111e-12
-3.7898338e-12
9.6686292e-12
-3.428137e-12
1.0061039e-11
-3.0392202e-12
1.0296262e-11
-2.6389684e-12
1.0457467e-11
-2.2473685e-12
1.0580695e-11
-1.8743935e-12
1.067847e-11
-1.5268285e-12
1.0753599e-11
-1.2094808e-12
1.0805421e-11
-9.2474564e-13
1.0832557e-11
-6.7290195e-13
1.0834065e-11
-4.5275792e-13
1.0809816e-11
-2.6223866e-13
1.0760497e-11
-9.8827329e-14
1.0687465e-11
4.0151238e-14
1.0592541e-11
1.5735991e-13
1.0477856e-11
2.553182e-13
1.0345722e-11
3.3632469e-13
1.0198515e-11
4.0245795e-13
1.0038584e-11
4.5558055e-13
9.8681917e-12
4.9735041e-13
9.6894772e-12
5.292378e-13
9.5044293e-12
5.5254427e-13
9.3148741e-12
5.6842126e-13
9.1224701e-12
5.7788723e-13
8.9287086e-12
5.818432e-13
8.7349182e-12
5.8108638e-13
8.5422719e-12
5.7632214e-13
8.3517957e-12
5.6817442e-13
8.1643779e-12
5.5719481e-13
7.9807794e-12
5.4387049e-13
7.8016435e-12
5.2863118e-13
7.6275063e-12
5.1185529e-13
7.4588057e-12
4.9387534e-13
7.2958916e-12
4.7498279e-13
7.139034e-12
4.5543238e-13
6.9884319e-12
4.3544593e-13
6.8442206e-12
4.1521591e-13
6.7064796e-12
3.9490846e-13
6.5752389e-12
3.7466629e-13
6.4504851e-12
3.5461119e-13
6.3321676e-12
3.3484635e-13
6.2202035e-12
3.1545839e-13
6.1144823e-12
2.9651931e-13
6.0148703e-12
2.780881e-13
5.9212143e-12
2.6021231e-13
5.8333453e-12
2.4292943e-13
5.7510816e-12
2.2626808e-13
5.6742311e-12
2.1024913e-13
5.6025946e-12
1.948867e-13
5.5359672e-12
1.8018904e-13
5.4741406e-12
1.6615931e-13
5.4169047e-12
1.5279629e-13
5.3640491e-12
1.4009498e-13
5.3153643e-12
1.280472e-13
5.2706428e-12
1.1664204e-13
5.2296799e-12
1.0586631e-13
5.192275e-12
9.5704946e-14
5.1582316e-12
8.6141303e-14
5.1273583e-12
7.7157497e-14
5.099469e-12
6.8734653e-14
5.0743834e-12
6.0853139e-14
5.0519272e-12
5.3492772e-14
5.0319326e-12
4.6632996e-14
5.0142379e-12
4.0253043e-14
4.9986881e-12
3.4332067e-14
4.9851345e-12
2.8849266e-14
4.9734351e-12
2.3783988e-14
4.9634546e-12
1.9115818e-14
4.9550638e-12
1.4824658e-14
4.9481401e-12
1.0890793e-14
4.9425671e-12
7.2949456e-15
4.9382344e-12
4.0183212e-15
4.9350378e-12
1.0426468e-15
4.9328787e-12
-1.6497685e-15
4.9316642e-12
-4.0760015e-15
4.9313068e-12
-6.2525717e-15
4.9317244e-12
-8.1953899e-15
4.9328398e-12
-9.9197467e-15
4.9345809e-12
-1.1440304e-14
4.93688e-12
-1.2771092e-14
4.9396741e-12
-1.3925517e-14
4.9429044e-12
-1.4916362e-14
4.9465163e-12
-1.57558e-14
4.9504591e-12
-1.6455398e-14
4.9546857e-12
-1.7026135e-14
4.9591526e-12
-1.7478412e-14
4.9638196e-12
-1.7822069e-14
4.9686498e-12
-1.8066401e-14
4.9736092e-12
-1.8220173e-14
4.9786667e-12
-1.8291639e-14
4.9837938e-12
-1.8288559e-14
4.9889646e-12
-1.821822e-14
4.9941556e-12
-1.8087452e-14
4.9993454e-12
-1.7902645e-14
5.0045149e-12
-1.7669771e-14
5.0096467e-12
-1.7394402e-14
5.0147254e-12
-1.7081726e-14
5.0197374e-12
-1.6736564e-14
5.0246705e-12
-1.6363391e-14
5.0295141e-12
-1.5966349e-14
5.0342589e-12
-1.5549269e-14
5.038897e-12
-1.511568e-14
5.0434216e-12
-1.4668831e-14
5.0478271e-12
-1.4211703e-14
5.0521086e-12
-1.3747024e-14
5.0562626e-12
-1.3277283e-14
5.060286e-12
-1.2804747e-14
5.0641769e-12
-1.233147e-14
5.0679337e-12
-1.1859306e-14
5.0715558e-12
-1.1389927e-14
5.075043e-12
-1.0924827e-14
5.0783956e-12
-1.0465338e-14
5.0816144e-12
-1.0012641e-14
5.0847008e-12
-9.5677719e-15
5.0876563e-12
-9.1316371e-15
5.090483e-12
-8.7050195e-15
5.0931831e-12
-8.2885884e-15
5.0957591e-12
-7.882908e-15
5.0982138e-12
-7.488445e-15
5.1005501e-12
-7.1055772e-15
5.1027712e-12
-6.7345998e-15
5.1048801e-12
-6.3757337e-15
5.1068803e-12
-6.0291309e-15
5.1087752e-12
-5.6948814e-15
5.1105683e-12
-5.3730178e-15
5.112263e-12
-5.0635221e-15
5.1138629e-12
-4.7663294e-15
5.1153716e-12
-4.4813345e-15
5.1167926e-12
-4.2083951e-15
5.1181294e-12
-3.9473373e-15
5.1193854e-12
-3.6979582e-15
5.1205643e-12
-3.4600303e-15
5.1216692e-12
-3.233304e-15
5.1227036e-12
-3.0175115e-15
5.1236707e-12
-2.8123696e-15
5.1245738e-12
-2.6175826e-15
5.1254159e-12
-2.4328446e-15
5.1262001e-12
-2.2578419e-15
5.1269293e-12
-2.092254e-15
5.1276064e-12
-1.9357567e-15
5.1282341e-12
-1.7880232e-15
5.1288152e-12
-1.6487263e-15
5.1293522e-12
-1.5175396e-15
5.1298476e-12
-1.3941384e-15
5.1303038e-12
-1.278201e-15
5.1307232e-12
-1.1694097e-15
5.1311078e-12
-1.0674514e-15
5.1314599e-12
-9.7201873e-16
5.1317815e-12
-8.8281074e-16
5.1320745e-12
-7.9953348e-16
5.1323408e-12
-7.2190011e-16
5.132582e-12
-6.4963179e-16
5.1328001e-12
-5.82457e-16
5.1329964e-12
-5.2011294e-16
5.1331725e-12
-4.6234522e-16
5.13333e-12
-4.0890886e-16
5.13347e-12
-3.5956752e-16
5.1335941e-12
-3.1409392e-16
5.1337032e-12
-2.7226893e-16
5.1337988e-12
-2.3388244e-16
5.1338817e-12
-1.9873303e-16
5.1339531e-12
-1.6662819e-16
5.134014e-12
-1.3738412e-16
5.1340652e-12
-1.1082543e-16
5.1341076e-12
-8.6784857e-17
5.1341421e-12
-6.510355e-17
5.1341693e-12
-4.5630134e-17
5.1341901e-12
-2.8221183e-17
5.134205e-12
-1.2740105e-17
5.1342147e-12
9.4214146e-19
5.1342198e-12
1.2948215e-17
5.1342209e-12
2.339351e-17
5.1342184e-12
3.2387069e-17
5.1342128e-12
4.0031348e-17
5.1342046e-12
4.6423288e-17
5.1341941e-12
5.1653732e-17
5.1341818e-12
5.5808584e-17
5.1341681e-12
5.896786e-17
5.1341532e-12
6.1207158e-17
5.1341374e-12
6.2596548e-17
5.1341211e-12
6.3201446e-17
5.1341045e-12
6.3082622e-17
5.1340879e-12
6.2295672e-17
5.1340714e-12
6.0892124e-17
5.1340553e-12
5.8917491e-17
5.1340398e-12
5.6412593e-17
5.1340251e-12
5.3410524e-17
5.1340112e-12
4.993785e-17
5.1339985e-12
4.6010681e-17
5.133987e-12
4.1635847e-17
5.1339769e-12
3.6808111e-17
5.1339683e-12
3.1514883e-17
5.1339613e-12
2.574444e-17
5.133956e-12
1.9511876e-17
5.1339525e-12
1.2913307e-17
5.1339507e-12
6.234997e-18
5.1339505e-12
1.5859361e-19
-3.9356893e-18
2.1247343e-11
-4.6875732e-13
1.8895742e-11
-1.839394e-12
1.7473026e-11
-2.3671175e-12
1.6531208e-11
-2.4863194e-12
1.5882127e-11
-2.3901387e-12
1.5420269e-11
-2.1771109e-12
1.5082189e-11
-1.9092886e-12
1.4827895e-11
-1.6200994e-12
1.4629921e-11
-1.3288545e-12
1.4468213e-11
-1.0477726e-12
1.4327705e-11
-7.8423772e-13
1.419707e-11
-5.42267e-13
1.4067976e-11
-3.2366369e-13
1.3934533e-11
-1.2879526e-13
1.3792816e-11
4.2888846e-14
1.3640434e-11
1.9253387e-13
1.3476194e-11
3.2159991e-13
1.329984e-11
4.3167222e-13
1.3111782e-11
5.2438282e-13
1.2912895e-11
6.0134477e-13
1.2704366e-11
6.6410988e-13
1.248757e-11
7.1414549e-13
1.2263986e-11
7.5282263e-13
1.2035118e-11
7.8141161e-13
1.1802457e-11
8.0108223e-13
1.1567438e-11
8.1290669e-13
1.1331417e-11
8.1786418e-13
1.1095657e-11
8.1684615e-13
1.0861317e-11