/*--------------------------------*- C++ -*----------------------------------*\
| =========                 |                                                 |
| \\      /  F ield         | OpenFOAM: The Open Source CFD Toolbox           |
|  \\    /   O peration     | Version:  2406                                  |
|   \\  /    A nd           | Website:  www.openfoam.com                      |
|    \\/     M anipulation  |                                                 |
\*---------------------------------------------------------------------------*/
FoamFile
{
    version     2.0;
    format      ascii;
    arch        "LSB;label=32;scalar=64";
    class       volScalarField;
    location    "1381";
    object      p;
}
// * * * * * * * * * * * * * * * * * * * * * * * * * * * * * * * * * * * * * //

dimensions      [0 2 -2 0 0 0 0];

internalField   nonuniform List<scalar> 
7600
(
-0.021065186
-0.021107634
-0.021140951
-0.0211504
-0.021136522
-0.021093658
-0.021014291
-0.020890489
-0.020713702
-0.020474253
-0.020160849
-0.019760225
-0.019257106
-0.018634747
-0.017876209
-0.016966454
-0.015894988
-0.014658409
-0.013262164
-0.011722401
-0.010066193
-0.0083304143
-0.0065606426
-0.0048064221
-0.0031173835
-0.0015392135
-0.00011005061
0.0011422227
0.0021997189
0.0030550277
0.0037116058
0.0041774129
0.004465533
0.0045944628
0.0045841099
0.0044547839
0.0042263779
0.0039176651
0.0035458552
0.0031263666
0.0026727436
0.0021966772
0.0017080931
0.0012152834
0.00072505975
0.00024291636
-0.00022680766
-0.00068077064
-0.0011165204
-0.0015323007
-0.0019269454
-0.0022998133
-0.0026506544
-0.0029795315
-0.0032867644
-0.0035728726
-0.0038385258
-0.0040845023
-0.0043116561
-0.0045208894
-0.0047131297
-0.0048893126
-0.0050503674
-0.0051972063
-0.0053307164
-0.0054517534
-0.0055611375
-0.0056596504
-0.005748034
-0.0058269893
-0.0058971766
-0.0059592159
-0.006013688
-0.0060611357
-0.0061020651
-0.0061369475
-0.0061662213
-0.006190293
-0.0062095399
-0.0062243114
-0.0062349305
-0.0062416962
-0.0062448844
-0.0062447498
-0.0062415275
-0.0062354338
-0.0062266684
-0.0062154149
-0.0062018422
-0.0061861057
-0.0061683482
-0.006148701
-0.0061272844
-0.006104209
-0.0060795762
-0.0060534789
-0.0060260022
-0.0059972241
-0.0059672159
-0.0059360429
-0.0059037647
-0.0058704359
-0.0058361061
-0.0058008207
-0.005764621
-0.0057275449
-0.0056896265
-0.0056508971
-0.0056113851
-0.0055711163
-0.0055301141
-0.0054883997
-0.0054459924
-0.0054029097
-0.0053591675
-0.00531478
-0.0052697603
-0.0052241202
-0.0051778705
-0.0051310207
-0.0050835798
-0.0050355558
-0.0049869561
-0.0049377874
-0.0048880559
-0.0048377674
-0.0047869272
-0.0047355404
-0.0046836116
-0.0046311454
-0.0045781462
-0.004524618
-0.0044705651
-0.0044159915
-0.0043609013
-0.0043052985
-0.0042491873
-0.0041925719
-0.0041354566
-0.004077846
-0.0040197447
-0.0039611575
-0.0039020895
-0.0038425458
-0.0037825322
-0.0037220542
-0.0036611179
-0.0035997298
-0.0035378963
-0.0034756245
-0.0034129215
-0.003349795
-0.003286253
-0.0032223035
-0.0031579553
-0.0030932173
-0.0030280988
-0.0029626094
-0.0028967591
-0.0028305582
-0.0027640175
-0.002697148
-0.0026299611
-0.0025624684
-0.0024946821
-0.0024266144
-0.0023582781
-0.0022896861
-0.0022208517
-0.0021517885
-0.0020825102
-0.0020130311
-0.0019433653
-0.0018735275
-0.0018035325
-0.0017333952
-0.0016631307
-0.0015927544
-0.0015222818
-0.0014517284
-0.0013811099
-0.0013104422
-0.0012397409
-0.001169022
-0.0010983013
-0.0010275947
-0.00095691801
-0.00088628677
-0.0008157165
-0.0007452224
-0.00067481922
-0.00060452108
-0.00053434089
-0.00046428981
-0.00039437441
-0.00032459537
-0.00025489697
-0.00018529912
-0.0001159701
-4.6244708e-05
-0.021002649
-0.021045343
-0.021076614
-0.021084977
-0.021073092
-0.021033495
-0.020957846
-0.020838106
-0.020666101
-0.020432907
-0.020128349
-0.019740538
-0.01925548
-0.018657175
-0.017928439
-0.017052885
-0.016017403
-0.014814637
-0.013444698
-0.011919986
-0.010269166
-0.0085313546
-0.0067539554
-0.0049889402
-0.0032881656
-0.0016994565
-0.00026259246
0.00099812822
0.0020655253
0.0029280852
0.0035888859
0.0040575274
0.0043487507
0.0044809812
0.0044743248
0.0043492468
0.00412569
0.0038224137
0.0034565689
0.003043481
0.002596582
0.0021274422
0.001645867
0.0011600347
0.00067665418
0.00020113039
-0.00026227231
-0.00071028166
-0.0011404345
-0.0015509533
-0.0019407603
-0.0023092858
-0.00265626
-0.0029817037
-0.0032859005
-0.0035693406
-0.0038326648
-0.0040766232
-0.004302042
-0.0045097966
-0.0047007892
-0.0048759313
-0.0050361298
-0.0051822762
-0.0053152383
-0.0054358543
-0.0055449286
-0.0056432285
-0.0057314829
-0.0058103813
-0.0058805738
-0.0059426711
-0.005997246
-0.0060448339
-0.0060859348
-0.0061210145
-0.0061505062
-0.0061748125
-0.0061943068
-0.0062093353
-0.0062202184
-0.0062272524
-0.0062307114
-0.0062308482
-0.0062278964
-0.0062220711
-0.0062135709
-0.0062025784
-0.006189262
-0.0061737762
-0.0061562636
-0.0061368549
-0.0061156703
-0.00609282
-0.0060684053
-0.006042519
-0.0060152463
-0.0059866651
-0.0059568467
-0.0059258565
-0.0058937542
-0.0058605943
-0.0058264269
-0.0057912973
-0.0057552471
-0.0057183141
-0.0056805329
-0.0056419348
-0.0056025483
-0.0055623995
-0.0055215119
-0.005479907
-0.0054376043
-0.0053946213
-0.0053509741
-0.0053066772
-0.0052617439
-0.005216186
-0.0051700145
-0.0051232392
-0.0050758691
-0.0050279125
-0.0049793768
-0.004930269
-0.0048805953
-0.0048303618
-0.0047795738
-0.0047282366
-0.0046763549
-0.0046239335
-0.0045709768
-0.0045174891
-0.0044634746
-0.0044089375
-0.004353882
-0.0042983123
-0.0042422327
-0.0041856474
-0.0041285609
-0.0040709778
-0.0040129029
-0.003954341
-0.0038952974
-0.0038357772
-0.0037757863
-0.0037153303
-0.0036544155
-0.0035930483
-0.0035312353
-0.0034689836
-0.0034063006
-0.0033431938
-0.0032796713
-0.0032157414
-0.0031514128
-0.0030866945
-0.0030215959
-0.0029561266
-0.0028902968
-0.0028241168
-0.0027575974
-0.0026907498
-0.0026235853
-0.0025561157
-0.0024883532
-0.0024203101
-0.0023519992
-0.0022834335
-0.0022146263
-0.0021455913
-0.0020763423
-0.0020068935
-0.0019372592
-0.001867454
-0.0017974928
-0.0017273905
-0.0016571624
-0.0015868238
-0.0015163901
-0.001445877
-0.0013753002
-0.0013046755
-0.0012340187
-0.0011633456
-0.0010926722
-0.0010220142
-0.00095138737
-0.00088080727
-0.00081028924
-0.0007398483
-0.00066949894
-0.00059925496
-0.0005291289
-0.00045913243
-0.00038927276
-0.00031956529
-0.00024996959
-0.00018068642
-0.0001115331
-4.6066367e-05
-0.021002295
-0.021043971
-0.02107847
-0.021092402
-0.021089682
-0.021060138
-0.020994708
-0.020885621
-0.020725641
-0.020507165
-0.020221539
-0.019858247
-0.019403857
-0.018841589
-0.018151613
-0.017312828
-0.016305562
-0.015116912
-0.013750965
-0.012223796
-0.010564022
-0.0088132369
-0.0070224305
-0.0052450693
-0.0035323795
-0.0019337891
-0.00048858286
0.00077558827
0.0018417022
0.0027031013
0.0033632544
0.0038324386
0.0041257568
0.0042616784
0.0042603458
0.0041421582
0.0039268694
0.0036329898
0.0032774026
0.0028751692
0.002439477
0.0019816809
0.0015114044
0.0010366776
0.00056409292
9.8966572e-05
-0.00035450232
-0.00079308273
-0.0012143693
-0.0016166569
-0.001998741
-0.0023599422
-0.0027000825
-0.0030192211
-0.0033176358
-0.0035957978
-0.0038543254
-0.0040939438
-0.0043154523
-0.004519698
-0.0047075548
-0.0048799062
-0.0050376315
-0.0051815957
-0.0053126413
-0.0054315824
-0.0055392007
-0.0056362424
-0.0057234165
-0.0058013943
-0.0058708089
-0.0059322557
-0.0059862931
-0.0060334438
-0.0060741961
-0.0061090051
-0.0061382945
-0.0061624584
-0.0061818623
-0.0061968456
-0.0062077224
-0.0062147838
-0.0062182987
-0.0062185158
-0.0062156646
-0.006209957
-0.0062015885
-0.0061907392
-0.0061775749
-0.0061622485
-0.0061449004
-0.0061256599
-0.0061046459
-0.0060819675
-0.0060577249
-0.00603201
-0.0060049073
-0.005976494
-0.0059468411
-0.0059160133
-0.0058840701
-0.0058510657
-0.0058170497
-0.0057820675
-0.0057461605
-0.0057093663
-0.0056717194
-0.0056332511
-0.00559399
-0.005553962
-0.0055131908
-0.0054716978
-0.0054295025
-0.0053866227
-0.0053430745
-0.0052988723
-0.0052540296
-0.0052085584
-0.0051624697
-0.0051157733
-0.0050684785
-0.0050205935
-0.004972126
-0.004923083
-0.0048734709
-0.0048232957
-0.0047725631
-0.0047212782
-0.0046694461
-0.0046170714
-0.0045641588
-0.0045107127
-0.0044567375
-0.0044022373
-0.0043472164
-0.0042916793
-0.0042356301
-0.0041790734
-0.0041220137
-0.0040644556
-0.004006404
-0.0039478639
-0.0038888405
-0.0038293393
-0.003769366
-0.0037089264
-0.0036480269
-0.003586674
-0.0035248743
-0.0034626351
-0.0033999637
-0.003336868
-0.0032733558
-0.0032094358
-0.0031451166
-0.0030804073
-0.0030153175
-0.0029498567
-0.0028840354
-0.0028178638
-0.0027513529
-0.0026845138
-0.002617358
-0.0025498974
-0.0024821442
-0.0024141109
-0.0023458103
-0.0022772554
-0.0022084597
-0.0021394369
-0.0020702009
-0.0020007659
-0.0019311463
-0.0018613568
-0.0017914124
-0.001721328
-0.0016511189
-0.0015808006
-0.0015103885
-0.0014398983
-0.0013693458
-0.0012987468
-0.0012281173
-0.001157473
-0.0010868301
-0.0010162043
-0.0009456114
-0.00087506723
-0.00080458732
-0.00073418705
-0.00066388157
-0.000593686
-0.00052361515
-0.00045368664
-0.00038391436
-0.00031435232
-0.00024495076
-0.00017626207
-0.00010696235
-4.8351495e-05
-0.021175667
-0.021198531
-0.021230545
-0.021247433
-0.021250054
-0.021225101
-0.021163439
-0.021058324
-0.020904112
-0.020694621
-0.020421977
-0.02007557
-0.019640739
-0.019097958
-0.018423957
-0.017592212
-0.016584854
-0.015394868
-0.014027858
-0.012497928
-0.01083443
-0.0090815227
-0.0072915244
-0.005519678
-0.0038194474
-0.0022385357
-0.00081429245
0.00042771626
0.0014730176
0.0023170249
0.0029639641
0.0034247592
0.0037148453
0.0038525313
0.0038574873
0.0037494928
0.0035476048
0.0032696276
0.0029317813
0.0025485348
0.0021325645
0.0016947986
0.0012445142
0.00078946705
0.00033603811
-0.00011061448
-0.00054640527
-0.00096817855
-0.001373574
-0.0017608987
-0.0021290366
-0.0024772923
-0.0028053527
-0.0031132609
-0.0034012883
-0.0036698762
-0.0039196065
-0.0041511667
-0.0043653165
-0.0045628618
-0.0047446349
-0.0049114779
-0.0050642299
-0.0052037164
-0.0053307418
-0.0054460838
-0.0055504893
-0.0056446717
-0.0057293092
-0.0058050438
-0.0058724816
-0.0059321928
-0.0059847127
-0.0060305423
-0.0060701501
-0.0061039731
-0.0061324185
-0.0061558651
-0.0061746648
-0.0061891443
-0.0061996066
-0.0062063322
-0.0062095811
-0.0062095935
-0.0062065914
-0.0062007801
-0.0061923489
-0.0061814725
-0.006168312
-0.0061530159
-0.0061357209
-0.0061165528
-0.0060956273
-0.0060730511
-0.0060489218
-0.0060233294
-0.0059963563
-0.0059680784
-0.0059385649
-0.0059078795
-0.0058760805
-0.0058432212
-0.0058093504
-0.0057745127
-0.0057387488
-0.005702096
-0.0056645882
-0.0056262563
-0.0055871287
-0.0055472309
-0.0055065865
-0.0054652166
-0.0054231407
-0.0053803764
-0.0053369396
-0.005292845
-0.0052481057
-0.0052027339
-0.0051567404
-0.0051101353
-0.0050629276
-0.0050151258
-0.0049667375
-0.0049177698
-0.0048682292
-0.0048181217
-0.004767453
-0.0047162284
-0.004664453
-0.0046121315
-0.0045592687
-0.0045058691
-0.0044519369
-0.0043974767
-0.0043424927
-0.0042869893
-0.004230971
-0.0041744422
-0.0041174076
-0.004059872
-0.0040018401
-0.0039433172
-0.0038843086
-0.0038248197
-0.0037648564
-0.0037044246
-0.0036435307
-0.0035821813
-0.0035203831
-0.0034581435
-0.0033954698
-0.00333237
-0.0032688522
-0.0032049248
-0.0031405968
-0.0030758772
-0.0030107757
-0.0029453022
-0.0028794668
-0.0028132801
-0.002746753
-0.0026798969
-0.0026127234
-0.0025452443
-0.002477472
-0.002409419
-0.0023410983
-0.0022725231
-0.0022037068
-0.0021346632
-0.0020654064
-0.0019959508
-0.0019263107
-0.001856501
-0.0017865367
-0.001716433
-0.0016462052
-0.0015758688
-0.0015054394
-0.001434933
-0.0013643652
-0.0012937522
-0.0012231099
-0.0011524545
-0.001081802
-0.0010111687
-0.00094057088
-0.00087002473
-0.00079954677
-0.00072915382
-0.00065886335
-0.00058869456
-0.00051866856
-0.00044881698
-0.00037916691
-0.00030984161
-0.00024072765
-0.00017300702
-0.00010315419
-5.3026398e-05
-0.021633179
-0.021571844
-0.021551051
-0.021533153
-0.021510463
-0.021462577
-0.021379156
-0.021255083
-0.021086141
-0.020866145
-0.020585938
-0.020235909
-0.019801994
-0.019260577
-0.018586265
-0.017753374
-0.016743438
-0.015549057
-0.014176254
-0.012645857
-0.010992982
-0.0092637328
-0.0075106681
-0.0057875487
-0.0041445306
-0.0026245709
-0.0012606247
-7.454942e-05
0.00092218369
0.0017271417
0.002345576
0.0027885671
0.0030710655
0.0032103507
0.0032247679
0.003132701
0.0029518478
0.0026987527
0.0023885206
0.0020346675
0.0016490791
0.001242042
0.00082232547
0.00039729211
-2.6974115e-05
-0.00044553263
-0.00085445089
-0.0012506735
-0.0016318987
-0.0019964625
-0.002343238
-0.002671523
-0.0029809898
-0.0032716497
-0.0035437229
-0.0037975825
-0.0040337426
-0.0042528292
-0.004455541
-0.0046426224
-0.0048148445
-0.0049729897
-0.0051178389
-0.0052501614
-0.0053707077
-0.0054802036
-0.005579347
-0.0056688044
-0.00574921
-0.0058211644
-0.0058852348
-0.0059419552
-0.0059918268
-0.0060353194
-0.0060728722
-0.0061048955
-0.0061317716
-0.0061538564
-0.0061714811
-0.0061849531
-0.0061945581
-0.0062005606
-0.006203206
-0.0062027214
-0.0061993169
-0.006193187
-0.0061845111
-0.0061734552
-0.0061601725
-0.0061448042
-0.0061274805
-0.0061083217
-0.0060874382
-0.006064932
-0.0060408967
-0.0060154186
-0.0059885768
-0.0059604441
-0.0059310875
-0.005900568
-0.0058689422
-0.0058362613
-0.0058025728
-0.0057679198
-0.0057323418
-0.005695875
-0.0056585525
-0.0056204043
-0.0055814581
-0.005541739
-0.0055012697
-0.0054600713
-0.0054181627
-0.0053755612
-0.0053322825
-0.0052883411
-0.00524375
-0.0051985211
-0.0051526652
-0.0051061924
-0.0050591116
-0.0050114313
-0.0049631591
-0.0049143019
-0.0048648665
-0.0048148588
-0.0047642846
-0.0047131492
-0.0046614578
-0.0046092151
-0.004556426
-0.004503095
-0.0044492265
-0.004394825
-0.004339895
-0.0042844408
-0.004228467
-0.0041719782
-0.004114979
-0.0040574743
-0.0039994691
-0.0039409685
-0.003881978
-0.0038225031
-0.0037625497
-0.0037021239
-0.0036412321
-0.0035798809
-0.0035180773
-0.0034558286
-0.0033931423
-0.0033300264
-0.003266489
-0.0032025389
-0.0031381848
-0.0030734362
-0.0030083026
-0.002942794
-0.0028769208
-0.0028106936
-0.0027441234
-0.0026772217
-0.0026100002
-0.0025424709
-0.0024746463
-0.002406539
-0.002338162
-0.0022695288
-0.002200653
-0.0021315484
-0.0020622292
-0.00199271
-0.0019230054
-0.0018531303
-0.0017830999
-0.0017129295
-0.0016426346
-0.0015722309
-0.0015017342
-0.0014311606
-0.0013605262
-0.001289847
-0.0012191396
-0.0011484202
-0.0010777055
-0.0010070123
-0.00093635755
-0.00086575865
-0.00079523372
-0.00072480206
-0.00065448485
-0.00058430746
-0.0005142994
-0.00044451069
-0.00037497693
-0.00030591096
-0.00023702857
-0.00017041551
-9.9209952e-05
-5.9444209e-05
-0.022528101
-0.022174148
-0.021950868
-0.021812709
-0.021717015
-0.021617315
-0.021496967
-0.021346585
-0.021160401
-0.020930616
-0.02064419
-0.020285571
-0.019835306
-0.0192707
-0.018567996
-0.017706436
-0.016672726
-0.015465477
-0.014096861
-0.012592137
-0.010987771
-0.0093285112
-0.0076632003
-0.0060400333
-0.0045025839
-0.0030870692
-0.0018205895
-0.00072058611
0.00020445357
0.00095372013
0.0015327104
0.0019516931
0.0022241667
0.0023655725
0.002392259
0.0023206496
0.0021666284
0.0019451253
0.001669855
0.0013531688
0.0010059973
0.00063785835
0.00025691236
-0.00012995199
-0.00051701295
-0.00089960078
-0.0012739793
-0.0016372295
-0.001987137
-0.002322087
-0.0026409682
-0.0029430761
-0.0032280598
-0.0034958865
-0.0037467404
-0.0039809334
-0.0041989071
-0.0044012135
-0.0045884775
-0.004761369
-0.0049205846
-0.005066833
-0.0052008227
-0.0053232526
-0.0054348056
-0.0055361424
-0.0056278988
-0.0057106826
-0.0057850721
-0.0058516155
-0.0059108305
-0.0059632049
-0.0060091967
-0.0060492354
-0.0060837228
-0.0061130344
-0.0061375203
-0.0061575067
-0.0061732973
-0.0061851744
-0.0061934001
-0.0061982178
-0.0061998534
-0.006198516
-0.0061943994
-0.0061876831
-0.0061785331
-0.006167103
-0.0061535346
-0.006137959
-0.0061204974
-0.0061012615
-0.0060803543
-0.0060578708
-0.0060338987
-0.0060085186
-0.0059818048
-0.0059538256
-0.0059246439
-0.0058943173
-0.0058628991
-0.0058304378
-0.0057969782
-0.0057625613
-0.0057272245
-0.0056910024
-0.0056539264
-0.0056160252
-0.0055773253
-0.0055378507
-0.0054976233
-0.0054566633
-0.0054149889
-0.0053726169
-0.0053295626
-0.0052858398
-0.0052414612
-0.0051964386
-0.0051507824
-0.0051045025
-0.0050576076
-0.0050101062
-0.0049620055
-0.0049133128
-0.0048640345
-0.0048141765
-0.0047637447
-0.0047127444
-0.0046611806
-0.0046090584
-0.0045563824
-0.0045031573
-0.0044493875
-0.0043950776
-0.0043402321
-0.0042848554
-0.0042289521
-0.0041725269
-0.0041155844
-0.0040581297
-0.0040001678
-0.0039417039
-0.0038827434
-0.0038232921
-0.0037633559
-0.0037029409
-0.0036420535
-0.0035807006
-0.0035188892
-0.0034566265
-0.0033939203
-0.0033307785
-0.0032672096
-0.0032032221
-0.0031388251
-0.0030740279
-0.0030088404
-0.0029432725
-0.0028773348
-0.002811038
-0.0027443933
-0.0026774122
-0.0026101065
-0.0025424885
-0.0024745707
-0.002406366
-0.0023378875
-0.0022691488
-0.0022001636
-0.0021309462
-0.0020615108
-0.0019918721
-0.001922045
-0.0018520447
-0.0017818865
-0.001711586
-0.0016411589
-0.0015706213
-0.0014999891
-0.0014292788
-0.0013585067
-0.0012876894
-0.0012168437
-0.0011459865
-0.0010751352
-0.0010043071
-0.00093352066
-0.00086279468
-0.00079214944
-0.00072160737
-0.00065119396
-0.00058094137
-0.0005108866
-0.00044109794
-0.00037160554
-0.00030272254
-0.0002338706
-0.00016829369
-9.4797089e-05
-6.7009456e-05
-0.024399401
-0.022849963
-0.022090456
-0.021817441
-0.021666055
-0.021541605
-0.021419836
-0.02127115
-0.021076262
-0.020825137
-0.020507382
-0.020108441
-0.019611153
-0.018997237
-0.01824881
-0.017352262
-0.016301966
-0.015103005
-0.013771697
-0.01233451
-0.010826042
-0.0092861938
-0.0077566312
-0.0062772414
-0.004883306
-0.0036036248
-0.0024594752
-0.0014644091
-0.00062482045
5.9062561e-05
0.00059206737
0.00098291227
0.0012430518
0.00138566
0.0014247905
0.0013746945
0.0012492936
0.0010617997
0.00082445837
0.00054838899
0.00024350393
-8.1510016e-05
-0.00041916395
-0.00076310616
-0.0011080393
-0.0014496244
-0.0017843779
-0.0021095689
-0.0024231178
-0.0027235022
-0.0030096687
-0.0032809578
-0.0035370122
-0.0037777157
-0.0040031908
-0.0042137295
-0.0044097342
-0.0045916907
-0.0047601481
-0.004915699
-0.0050589611
-0.0051905627
-0.0053111321
-0.0054212899
-0.0055216422
-0.005612776
-0.0056952561
-0.0057696224
-0.005836389
-0.0058960432
-0.0059490452
-0.0059958289
-0.0060368017
-0.0060723459
-0.0061028191
-0.0061285559
-0.0061498683
-0.0061670472
-0.0061803635
-0.0061900693
-0.006196399
-0.0061995703
-0.0061997852
-0.0061972312
-0.0061920822
-0.0061844993
-0.0061746318
-0.0061626178
-0.0061485853
-0.0061326525
-0.0061149288
-0.0060955154
-0.0060745057
-0.0060519858
-0.0060280354
-0.0060027279
-0.005976131
-0.0059483072
-0.005919314
-0.0058892042
-0.0058580265
-0.0058258259
-0.0057926434
-0.0057585169
-0.0057234811
-0.0056875679
-0.0056508066
-0.0056132238
-0.0055748443
-0.0055356905
-0.0054957829
-0.0054551404
-0.0054137803
-0.0053717183
-0.0053289688
-0.005285545
-0.0052414591
-0.005196722
-0.005151344
-0.0051053343
-0.0050587016
-0.0050114537
-0.0049635979
-0.0049151411
-0.0048660895
-0.0048164491
-0.0047662256
-0.004715424
-0.0046640496
-0.0046121072
-0.0045596014
-0.0045065369
-0.0044529182
-0.0043987498
-0.0043440361
-0.0042887817
-0.0042329912
-0.0041766691
-0.0041198204
-0.00406245
-0.0040045628
-0.0039461643
-0.0038872599
-0.0038278552
-0.0037679563
-0.0037075694
-0.003646701
-0.0035853578
-0.0035235469
-0.0034612758
-0.0033985521
-0.0033353839
-0.0032717796
-0.003207748
-0.0031432981
-0.0030784393
-0.0030131816
-0.0029475351
-0.0028815103
-0.0028151181
-0.0027483699
-0.0026812772
-0.0026138521
-0.0025461069
-0.0024780543
-0.0024097073
-0.0023410794
-0.0022721841
-0.0022030356
-0.0021336481
-0.0020640363
-0.0019942151
-0.0019241996
-0.0018540052
-0.0017836476
-0.0017131427
-0.0016425065
-0.0015717554
-0.0015009059
-0.0014299746
-0.0013589784
-0.0012879344
-0.00121686
-0.0011457727
-0.0010746908
-0.0010036327
-0.0009326181
-0.00086166764
-0.00079080392
-0.00072005251
-0.0006494428
-0.0005790127
-0.00050880344
-0.00043889782
-0.00036930335
-0.00030043638
-0.00023132354
-0.00016655162
-8.9950713e-05
-7.4906787e-05
-0.029623981
-0.023958589
-0.022118525
-0.021973364
-0.021757798
-0.021473296
-0.021247802
-0.021028269
-0.020760505
-0.020432804
-0.020040062
-0.01956962
-0.019006694
-0.018338022
-0.017552722
-0.016644229
-0.015612638
-0.014466191
-0.01322135
-0.011901748
-0.01053646
-0.0091577672
-0.0077986557
-0.0064903927
-0.0052605679
-0.0041317614
-0.0031208189
-0.0022386883
-0.0014907513
-0.00087747694
-0.00039521435
-3.7042966e-05
0.00020636891
0.00034596731
0.00039362086
0.00036153845
0.00026179746
0.00010598258
-9.5074009e-05
-0.00033146581
-0.00059431182
-0.00087579626
-0.001169161
-0.001468663
-0.0017695079
-0.0020677669
-0.002360287
-0.0026445976
-0.0029188197
-0.0031815805
-0.003431936
-0.0036693078
-0.0038934058
-0.0041040713
-0.0043013211
-0.0044854362
-0.0046568044
-0.0048158592
-0.0049630796
-0.005098984
-0.0052241121
-0.0053390112
-0.005444228
-0.0055403014
-0.0056277574
-0.005707105
-0.0057788332
-0.0058434095
-0.0059012786
-0.0059528619
-0.0059985575
-0.00603874
-0.0060737619
-0.0061039534
-0.0061296239
-0.0061510625
-0.0061685392
-0.0061823058
-0.0061925969
-0.0061996308
-0.0062036109
-0.0062047261
-0.0062031517
-0.006199051
-0.0061925751
-0.0061838644
-0.0061730491
-0.0061602499
-0.0061455785
-0.0061291386
-0.006111026
-0.0060913295
-0.006070131
-0.0060475067
-0.0060235266
-0.0059982556
-0.0059717536
-0.0059440759
-0.0059152735
-0.0058853934
-0.005854479
-0.0058225703
-0.005789704
-0.0057559141
-0.0057212318
-0.0056856856
-0.0056493019
-0.005612105
-0.0055741169
-0.0055353582
-0.0054958475
-0.0054556019
-0.0054146372
-0.0053729679
-0.0053306072
-0.0052875672
-0.005243859
-0.005199493
-0.0051544786
-0.0051088243
-0.0050625383
-0.005015628
-0.0049681002
-0.0049199614
-0.0048712175
-0.0048218743
-0.004771937
-0.0047214107
-0.0046703004
-0.0046186106
-0.004566346
-0.004513511
-0.00446011
-0.0044061475
-0.0043516279
-0.0042965556
-0.0042409351
-0.0041847711
-0.0041280682
-0.0040708314
-0.0040130657
-0.0039547765
-0.003895969
-0.003836649
-0.0037768225
-0.0037164956
-0.0036556748
-0.0035943668
-0.0035325788
-0.0034703182
-0.0034075926
-0.0033444101
-0.0032807791
-0.0032167084
-0.0031522071
-0.0030872846
-0.003021951
-0.0029562162
-0.0028900911
-0.0028235865
-0.0027567139
-0.0026894849
-0.0026219117
-0.0025540067
-0.0024857828
-0.0024172531
-0.0023484313
-0.0022793312
-0.002209967
-0.0021403533
-0.002070505
-0.0020004372
-0.0019301654
-0.0018597053
-0.0017890729
-0.0017182845
-0.0016473565
-0.0015763056
-0.0015051489
-0.0014339034
-0.0013625865
-0.0012912161
-0.00121981
-0.0011483868
-0.0010769654
-0.0010055656
-0.00093420827
-0.00086291594
-0.00079171323
-0.00072062826
-0.00064969313
-0.00057894938
-0.00050843817
-0.00043825129
-0.00036835958
-0.00029927698
-0.00022958879
-0.00016526669
-8.5109485e-05
-8.2170279e-05
-0.020833733
-0.018759876
-0.018969554
-0.019813003
-0.020067698
-0.020002875
-0.019907037
-0.019769316
-0.019544163
-0.019233943
-0.018847288
-0.018380696
-0.017826362
-0.017177935
-0.01643115
-0.015584629
-0.014641537
-0.013610695
-0.012506655
-0.01134896
-0.010160895
-0.0089679081
-0.0077958696
-0.0066693712
-0.0056103017
-0.0046368278
-0.0037627966
-0.002997527
-0.0023459466
-0.0018089842
-0.0013841109
-0.0010659632
-0.00084699917
-0.00071814248
-0.00066937194
-0.00069023876
-0.00077030034
-0.00089946519
-0.0010682498
-0.0012679554
-0.001490774
-0.0017298365
-0.0019792129
-0.0022338781
-0.0024896522
-0.0027431264
-0.0029915794
-0.0032328926
-0.0034654669
-0.0036881445
-0.0039001397
-0.0041009738
-0.0042904325
-0.0044684192
-0.0046349497
-0.0047902829
-0.0049347691
-0.0050687866
-0.0051927472
-0.0053070939
-0.0054122858
-0.005508787
-0.005597059
-0.0056775557
-0.0057507189
-0.0058169753
-0.0058767343
-0.0059303863
-0.0059783025
-0.0060208342
-0.0060583129
-0.0060910507
-0.0061193408
-0.006143458
-0.0061636597
-0.0061801864
-0.006193263
-0.006203099
-0.00620989
-0.006213818
-0.0062150525
-0.0062137514
-0.0062100613
-0.0062041186
-0.0061960501
-0.0061859735
-0.0061739981
-0.0061602254
-0.0061447494
-0.0061276576
-0.0061090309
-0.0060889444
-0.0060674676
-0.006044665
-0.0060205961
-0.0059953162
-0.0059688764
-0.0059413239
-0.0059127024
-0.0058830521
-0.0058524104
-0.0058208117
-0.0057882876
-0.0057548675
-0.0057205783
-0.0056854448
-0.0056494901
-0.005612735
-0.005575199
-0.0055369
-0.0054978544
-0.0054580771
-0.0054175821
-0.0053763822
-0.0053344889
-0.0052919132
-0.005248665
-0.0052047533
-0.0051601866
-0.0051149727
-0.0050691189
-0.0050226318
-0.0049755177
-0.0049277825
-0.0048794316
-0.0048304702
-0.0047809033
-0.0047307355
-0.0046799714
-0.0046286153
-0.0045766717
-0.0045241446
-0.0044710383
-0.0044173569
-0.0043631048
-0.004308286
-0.004252905
-0.0041969663
-0.0041404743
-0.0040834339
-0.0040258499
-0.0039677274
-0.0039090718
-0.0038498887
-0.0037901837
-0.003729963
-0.003669233
-0.0036080002
-0.0035462717
-0.0034840547
-0.0034213568
-0.0033581861
-0.0032945508
-0.0032304596
-0.0031659216
-0.0031009461
-0.0030355431
-0.0029697227
-0.0029034954
-0.0028368724
-0.0027698648
-0.0027024846
-0.0026347438
-0.0025666549
-0.002498231
-0.0024294852
-0.0023604314
-0.0022910835
-0.0022214559
-0.0021515633
-0.002081421
-0.0020110443
-0.001940449
-0.0018696511
-0.001798667
-0.0017275133
-0.001656207
-0.0015847652
-0.0015132053
-0.001441545
-0.0013698024
-0.0012979958
-0.0012261439
-0.001154266
-0.001082382
-0.0010105127
-0.00093868038
-0.00086690881
-0.00079522424
-0.00072365645
-0.00065223869
-0.00058101374
-0.00051001889
-0.00043934919
-0.0003689324
-0.00029936407
-0.00022881235
-0.00016448604
-8.0819516e-05
-8.7773008e-05
-0.019148647
-0.019282131
-0.01941657
-0.01944191
-0.019260372
-0.018999108
-0.018754586
-0.018504598
-0.018211661
-0.017866641
-0.017468053
-0.017009215
-0.016481932
-0.015880361
-0.015201393
-0.014444795
-0.013614021
-0.012716832
-0.011765242
-0.01077494
-0.0097643634
-0.0087535539
-0.0077628996
-0.006811899
-0.0059180903
-0.0050962364
-0.0043577949
-0.0037106691
-0.0031592158
-0.0027044682
-0.0023445111
-0.0020749564
-0.0018894747
-0.0017803414
-0.0017389569
-0.0017563139
-0.001823396
-0.0019314962
-0.0020724542
-0.0022388184
-0.0024239392
-0.0026220081
-0.0028280513
-0.0030378919
-0.0032480908
-0.0034558736
-0.0036590522
-0.0038559462
-0.0040453071
-0.0042262481
-0.004398183
-0.0045607742
-0.0047138879
-0.0048575375
-0.0049918193
-0.0051169435
-0.0052331875
-0.0053408704
-0.0054403406
-0.0055319658
-0.0056161228
-0.0056931902
-0.0057635428
-0.0058275467
-0.0058855571
-0.0059379155
-0.0059849487
-0.0060269677
-0.0060642674
-0.0060971265
-0.0061258078
-0.0061505582
-0.0061716099
-0.0061891802
-0.0062034728
-0.006214678
-0.0062229736
-0.0062285258
-0.0062314894
-0.0062320089
-0.0062302189
-0.0062262449
-0.0062202036
-0.0062122038
-0.0062023467
-0.0061907262
-0.0061774301
-0.0061625397
-0.0061461305
-0.0061282731
-0.0061090325
-0.0060884695
-0.0060666403
-0.0060435972
-0.0060193887
-0.0059940597
-0.0059676518
-0.0059402037
-0.0059117512
-0.0058823272
-0.0058519625
-0.0058206854
-0.0057885221
-0.0057554968
-0.0057216318
-0.0056869478
-0.0056514638
-0.0056151975
-0.0055781649
-0.0055403811
-0.0055018598
-0.0054626137
-0.0054226545
-0.0053819929
-0.0053406389
-0.0052986016
-0.0052558894
-0.0052125102
-0.0051684712
-0.0051237791
-0.0050784401
-0.0050324599
-0.0049858441
-0.0049385977
-0.0048907255
-0.0048422321
-0.0047931218
-0.0047433987
-0.004693067
-0.0046421305
-0.0045905931
-0.0045384587
-0.0044857309
-0.0044324138
-0.004378511
-0.0043240267
-0.0042689647
-0.0042133293
-0.0041571246
-0.0041003553
-0.0040430258
-0.0039851411
-0.003926706
-0.0038677261
-0.0038082067
-0.0037481536
-0.0036875731
-0.0036264714
-0.0035648553
-0.0035027318
-0.0034401083
-0.0033769925
-0.0033133926
-0.0032493169
-0.0031847744
-0.0031197743
-0.0030543262
-0.0029884401
-0.0029221264
-0.0028553961
-0.0027882603
-0.0027207307
-0.0026528194
-0.0025845389
-0.002515902
-0.0024469221
-0.0023776129
-0.0023079884
-0.0022380632
-0.0021678521
-0.0020973704
-0.0020266338
-0.0019556582
-0.0018844601
-0.0018130559
-0.0017414628
-0.0016696981
-0.0015977793
-0.0015257245
-0.0014535518
-0.0013812797
-0.0013089273
-0.001236514
-0.0011640596
-0.001091585
-0.0010191117
-0.00094666293
-0.00087426338
-0.00080194011
-0.0007297235
-0.0006576465
-0.00058575098
-0.00051406796
-0.00044269155
-0.00037150761
-0.00030117439
-0.00022951475
-0.00016471258
-7.7882919e-05
-9.1213736e-05
-0.017884907
-0.017845509
-0.01764136
-0.017479156
-0.01737073
-0.017243605
-0.017081841
-0.016884659
-0.016642003
-0.016346512
-0.015995755
-0.015587315
-0.015118026
-0.014585628
-0.013989654
-0.013331771
-0.012616235
-0.011850267
-0.011044075
-0.010210487
-0.0093643213
-0.0085215688
-0.0076984874
-0.0069106775
-0.0061722451
-0.0054951225
-0.0048885892
-0.0043590103
-0.0039097882
-0.0035415077
-0.0032522349
-0.0030379239
-0.002892887
-0.0028102842
-0.0027825924
-0.0028020237
-0.0028608758
-0.0029518045
-0.0030680174
-0.0032033976
-0.0033525651
-0.0035108895
-0.0036744669
-0.0038400708
-0.0040050887
-0.0041674502
-0.0043255535
-0.0044781947
-0.0046245008
-0.0047638696
-0.0048959175
-0.0050204345
-0.0051373587
-0.0052468425
-0.0053490849
-0.0054442321
-0.0055324748
-0.0056140648
-0.005689281
-0.0057584101
-0.005821743
-0.0058795704
-0.0059321781
-0.0059798437
-0.0060228351
-0.0060614088
-0.0060958095
-0.0061262693
-0.006153008
-0.0061762328
-0.006196139
-0.0062129101
-0.0062267184
-0.0062377253
-0.006246082
-0.00625193
-0.0062554018
-0.0062566209
-0.0062557029
-0.0062527558
-0.0062478803
-0.0062411703
-0.0062327137
-0.0062225921
-0.0062108819
-0.0061976543
-0.0061829756
-0.0061669074
-0.0061495075
-0.0061308294
-0.006110923
-0.0060898349
-0.0060676082
-0.0060442833
-0.0060198975
-0.0059944856
-0.00596808
-0.0059407107
-0.0059124056
-0.0058831905
-0.0058530894
-0.0058221246
-0.0057903167
-0.0057576847
-0.0057242465
-0.0056900182
-0.0056550151