/*--------------------------------*- C++ -*----------------------------------*\
| =========                 |                                                 |
| \\      /  F ield         | OpenFOAM: The Open Source CFD Toolbox           |
|  \\    /   O peration     | Version:  2406                                  |
|   \\  /    A nd           | Website:  www.openfoam.com                      |
|    \\/     M anipulation  |                                                 |
\*---------------------------------------------------------------------------*/
FoamFile
{
    version     2.0;
    format      ascii;
    arch        "LSB;label=32;scalar=64";
    class       volVectorField;
    location    "1381";
    object      U;
}
// * * * * * * * * * * * * * * * * * * * * * * * * * * * * * * * * * * * * * //

dimensions      [0 1 -1 0 0 0 0];

internalField   nonuniform List<vector> 
7600
(
(-9.8779666e-05 4.8448572e-05 0)
(-0.0014518077 0.00023955915 0)
(-0.003479182 0.00034429518 0)
(-0.0057987222 0.00038585948 0)
(-0.0082214938 0.00042551581 0)
(-0.010739974 0.000467283 0)
(-0.013359969 0.00051176218 0)
(-0.016087922 0.00056069299 0)
(-0.018934011 0.00061724408 0)
(-0.021910283 0.00068506424 0)
(-0.025024709 0.00076719472 0)
(-0.028272275 0.00086440081 0)
(-0.031623416 0.00097291957 0)
(-0.035012068 0.001082818 0)
(-0.038327356 0.0011777034 0)
(-0.041413398 0.0012366059 0)
(-0.044080058 0.0012368991 0)
(-0.046122396 0.0011583121 0)
(-0.047342491 0.00098830116 0)
(-0.047571424 0.00073287222 0)
(-0.046685288 0.0004167222 0)
(-0.044661771 6.771135e-05 0)
(-0.04153561 -0.00028468409 0)
(-0.037404875 -0.00061334725 0)
(-0.032415156 -0.00089613962 0)
(-0.026746964 -0.0011166874 0)
(-0.020600082 -0.0012698891 0)
(-0.014169141 -0.0013685071 0)
(-0.0076332494 -0.0014173913 0)
(-0.0011612688 -0.0014075092 0)
(0.0051119127 -0.0013425082 0)
(0.011089033 -0.0012389306 0)
(0.016684571 -0.0011150879 0)
(0.021835601 -0.00098007367 0)
(0.026509076 -0.00084074852 0)
(0.03069134 -0.00070301748 0)
(0.034383506 -0.00057143408 0)
(0.037598436 -0.00044919834 0)
(0.040357759 -0.00033834101 0)
(0.04268919 -0.00023992811 0)
(0.044624316 -0.00015426268 0)
(0.046196819 -8.1073443e-05 0)
(0.04744107 -1.968107e-05 0)
(0.048391071 3.0861689e-05 0)
(0.049079667 7.1656225e-05 0)
(0.049537997 0.00010387111 0)
(0.049795128 0.00012868175 0)
(0.049877936 0.00014723273 0)
(0.04981045 0.00016050614 0)
(0.049615536 0.00016917639 0)
(0.04931316 0.0001741122 0)
(0.048920977 0.00017627601 0)
(0.048454522 0.00017635344 0)
(0.047927445 0.00017479257 0)
(0.047351711 0.00017193506 0)
(0.046737746 0.00016807437 0)
(0.046094579 0.00016346325 0)
(0.045429987 0.00015831346 0)
(0.044750634 0.00015279916 0)
(0.044062202 0.00014706166 0)
(0.043369501 0.00014121409 0)
(0.04267658 0.00013534579 0)
(0.041986822 0.00012952636 0)
(0.041303027 0.00012380913 0)
(0.04062749 0.0001182342 0)
(0.039962071 0.00011283094 0)
(0.03930825 0.00010762014 0)
(0.038667186 0.00010261567 0)
(0.038039756 9.7825964e-05 0)
(0.037426605 9.3255168e-05 0)
(0.036828173 8.8904051e-05 0)
(0.036244731 8.4770792e-05 0)
(0.035676405 8.085158e-05 0)
(0.035123205 7.7141118e-05 0)
(0.034585036 7.3633014e-05 0)
(0.034061724 7.0320101e-05 0)
(0.03355303 6.7194694e-05 0)
(0.033058655 6.4248787e-05 0)
(0.032578264 6.1474218e-05 0)
(0.032111484 5.8862791e-05 0)
(0.031657917 5.6406375e-05 0)
(0.03121715 5.4096976e-05 0)
(0.030788754 5.1926799e-05 0)
(0.030372294 4.9888285e-05 0)
(0.029967331 4.7974142e-05 0)
(0.029573426 4.6177364e-05 0)
(0.029190143 4.4491246e-05 0)
(0.028817051 4.2909389e-05 0)
(0.028453726 4.1425698e-05 0)
(0.028099752 4.0034386e-05 0)
(0.027754723 3.8729962e-05 0)
(0.027418245 3.7507229e-05 0)
(0.027089934 3.6361271e-05 0)
(0.026769417 3.5287447e-05 0)
(0.026456335 3.4281374e-05 0)
(0.026150341 3.333892e-05 0)
(0.0258511 3.2456194e-05 0)
(0.025558289 3.1629526e-05 0)
(0.0252716 3.0855465e-05 0)
(0.024990735 3.0130761e-05 0)
(0.024715409 2.9452358e-05 0)
(0.024445349 2.8817378e-05 0)
(0.024180292 2.8223118e-05 0)
(0.023919989 2.766703e-05 0)
(0.023664201 2.7146723e-05 0)
(0.023412698 2.6659945e-05 0)
(0.023165263 2.6204578e-05 0)
(0.022921688 2.577863e-05 0)
(0.022681774 2.5380224e-05 0)
(0.022445332 2.5007597e-05 0)
(0.022212182 2.4659086e-05 0)
(0.021982153 2.4333126e-05 0)
(0.021755082 2.4028244e-05 0)
(0.021530813 2.3743049e-05 0)
(0.0213092 2.3476231e-05 0)
(0.021090102 2.3226555e-05 0)
(0.020873388 2.2992854e-05 0)
(0.020658931 2.2774026e-05 0)
(0.020446612 2.2569031e-05 0)
(0.020236318 2.2376886e-05 0)
(0.020027942 2.2196659e-05 0)
(0.019821383 2.2027469e-05 0)
(0.019616547 2.1868483e-05 0)
(0.019413342 2.1718909e-05 0)
(0.019211684 2.1577996e-05 0)
(0.019011494 2.1445032e-05 0)
(0.018812696 2.1319341e-05 0)
(0.018615219 2.1200278e-05 0)
(0.018418998 2.1087232e-05 0)
(0.018223972 2.0979618e-05 0)
(0.018030081 2.0876883e-05 0)
(0.017837274 2.0778494e-05 0)
(0.0176455 2.0683947e-05 0)
(0.017454712 2.0592758e-05 0)
(0.017264869 2.0504464e-05 0)
(0.017075931 2.0418622e-05 0)
(0.016887863 2.0334811e-05 0)
(0.016700632 2.0252623e-05 0)
(0.016514208 2.017167e-05 0)
(0.016328566 2.0091578e-05 0)
(0.016143682 2.001199e-05 0)
(0.015959536 1.9932561e-05 0)
(0.01577611 1.9852961e-05 0)
(0.015593388 1.9772874e-05 0)
(0.015411359 1.9691996e-05 0)
(0.015230012 1.9610035e-05 0)
(0.01504934 1.9526711e-05 0)
(0.014869338 1.9441756e-05 0)
(0.014690003 1.9354914e-05 0)
(0.014511335 1.9265938e-05 0)
(0.014333336 1.9174594e-05 0)
(0.01415601 1.9080659e-05 0)
(0.013979362 1.8983919e-05 0)
(0.0138034 1.8884172e-05 0)
(0.013628135 1.8781227e-05 0)
(0.013453579 1.86749e-05 0)
(0.013279744 1.8565024e-05 0)
(0.013106647 1.8451435e-05 0)
(0.012934305 1.8333985e-05 0)
(0.012762737 1.8212534e-05 0)
(0.012591962 1.8086953e-05 0)
(0.012422004 1.7957125e-05 0)
(0.012252885 1.7822944e-05 0)
(0.01208463 1.7684312e-05 0)
(0.011917265 1.7541146e-05 0)
(0.011750818 1.7393373e-05 0)
(0.011585318 1.724093e-05 0)
(0.011420794 1.7083768e-05 0)
(0.011257277 1.6921847e-05 0)
(0.011094798 1.6755139e-05 0)
(0.010933391 1.6583629e-05 0)
(0.010773089 1.6407314e-05 0)
(0.010613926 1.6226201e-05 0)
(0.010455937 1.6040311e-05 0)
(0.010299158 1.5849679e-05 0)
(0.010143625 1.5654349e-05 0)
(0.0099893741 1.5454384e-05 0)
(0.0098364421 1.5249859e-05 0)
(0.009684866 1.5040868e-05 0)
(0.0095346829 1.4827522e-05 0)
(0.0093859298 1.4609959e-05 0)
(0.0092386436 1.4388346e-05 0)
(0.0090928606 1.4162895e-05 0)
(0.0089486166 1.3933871e-05 0)
(0.0088059463 1.3701631e-05 0)
(0.0086648829 1.3466659e-05 0)
(0.0085254572 1.3229654e-05 0)
(0.0083876965 1.2991662e-05 0)
(0.0082516229 1.275435e-05 0)
(0.0081172494 1.2520556e-05 0)
(0.0079845752 1.2295361e-05 0)
(0.0078535734 1.2088932e-05 0)
(0.0077241728 1.1921236e-05 0)
(0.0075962074 1.18398e-05 0)
(0.0074693387 1.1936614e-05 0)
(0.0073427121 1.2537363e-05 0)
(0.0072152453 1.405709e-05 0)
(0.0070829722 1.7992782e-05 0)
(0.0069329427 2.3656399e-05 0)
(0.0066833923 8.4510154e-05 0)
(-0.00074727148 0.0016978524 0)
(-0.0053740212 0.0035720134 0)
(-0.011087171 0.0043568278 0)
(-0.01714104 0.004637945 0)
(-0.023169315 0.004802814 0)
(-0.029140814 0.0049488446 0)
(-0.035039901 0.0050967785 0)
(-0.040854207 0.0052548889 0)
(-0.046568946 0.005426976 0)
(-0.052155347 0.0056068917 0)
(-0.057557187 0.0057736056 0)
(-0.062678464 0.0058874268 0)
(-0.067373705 0.0058892484 0)
(-0.071445691 0.0057065981 0)
(-0.07465553 0.0052654502 0)
(-0.076746453 0.0045062392 0)
(-0.077475457 0.0034010416 0)
(-0.076640856 0.0019692799 0)
(-0.074098212 0.00028095301 0)
(-0.069883041 -0.0015696144 0)
(-0.064059358 -0.0034723398 0)
(-0.056744738 -0.0053128553 0)
(-0.048125094 -0.0069957761 0)
(-0.038423234 -0.0084501131 0)
(-0.027881851 -0.0096284295 0)
(-0.016753617 -0.010499011 0)
(-0.0053022584 -0.011058877 0)
(0.0062459421 -0.011321335 0)
(0.017719998 -0.011314372 0)
(0.028953478 -0.011073391 0)
(0.039789256 -0.010634711 0)
(0.050116818 -0.010043945 0)
(0.059854042 -0.0093475263 0)
(0.068941964 -0.0085822416 0)
(0.077344136 -0.0077788162 0)
(0.085042728 -0.0069628692 0)
(0.092034625 -0.006154991 0)
(0.098328424 -0.0053711288 0)
(0.1039419 -0.0046231402 0)
(0.10889981 -0.0039193738 0)
(0.11323204 -0.0032652454 0)
(0.11697209 -0.0026637797 0)
(0.12015582 -0.0021160989 0)
(0.12282052 -0.0016218476 0)
(0.12500405 -0.0011795539 0)
(0.12674421 -0.00078693081 0)
(0.12807827 -0.00044112231 0)
(0.12904244 -0.00013887178 0)
(0.12967202 0.00012311684 0)
(0.13 0.00034827174 0)
(0.13005692 0.0005398328 0)
(0.12987358 0.00070103847 0)
(0.12947862 0.00083520979 0)
(0.12889844 0.00094551961 0)
(0.12815735 0.0010348678 0)
(0.12727761 0.0011058752 0)
(0.12627953 0.001160905 0)
(0.12518146 0.0012020825 0)
(0.12399997 0.0012313109 0)
(0.12274995 0.0012502874 0)
(0.12144468 0.001260519 0)
(0.12009597 0.0012633385 0)
(0.11871427 0.0012599198 0)
(0.1173088 0.0012512933 0)
(0.1158876 0.0012383597 0)
(0.11445772 0.0012219036 0)
(0.11302524 0.0012026062 0)
(0.1115954 0.0011810566 0)
(0.11017269 0.0011577622 0)
(0.1087609 0.0011331588 0)
(0.10736323 0.0011076187 0)
(0.10598234 0.0010814587 0)
(0.10462042 0.0010549471 0)
(0.10327922 0.0010283099 0)
(0.10196013 0.0010017361 0)
(0.10066424 0.00097538294 0)
(0.099392327 0.00094937973 0)
(0.098144938 0.00092383203 0)
(0.096922409 0.00089882482 0)
(0.095724893 0.00087442536 0)
(0.094552387 0.00085068582 0)
(0.093404757 0.00082764544 0)
(0.092281756 0.00080533249 0)
(0.091183044 0.00078376593 0)
(0.090108202 0.00076295686 0)
(0.08905675 0.0007429098 0)
(0.088028152 0.00072362377 0)
(0.087021834 0.00070509321 0)
(0.086037188 0.00068730881 0)
(0.085073583 0.00067025819 0)
(0.084130371 0.0006539265 0)
(0.083206892 0.00063829695 0)
(0.082302481 0.00062335119 0)
(0.081416471 0.00060906975 0)
(0.080548197 0.0005954323 0)
(0.079696998 0.00058241793 0)
(0.078862224 0.00057000541 0)
(0.078043231 0.0005581733 0)
(0.07723939 0.00054690018 0)
(0.076450083 0.00053616476 0)
(0.075674709 0.00052594595 0)
(0.074912681 0.00051622301 0)
(0.074163426 0.00050697555 0)
(0.073426393 0.00049818364 0)
(0.072701042 0.00048982783 0)
(0.071986856 0.00048188918 0)
(0.07128333 0.00047434928 0)
(0.07058998 0.0004671903 0)
(0.069906338 0.00046039495 0)
(0.069231954 0.0004539465 0)
(0.068566394 0.00044782881 0)
(0.067909242 0.00044202628 0)
(0.067260096 0.00043652388 0)
(0.066618574 0.00043130712 0)
(0.065984306 0.00042636202 0)
(0.065356939 0.00042167516 0)
(0.064736136 0.00041723358 0)
(0.064121573 0.00041302484 0)
(0.063512942 0.00040903695 0)
(0.062909948 0.00040525839 0)
(0.06231231 0.00040167807 0)
(0.061719758 0.00039828531 0)
(0.061132038 0.00039506985 0)
(0.060548907 0.0003920218 0)
(0.059970134 0.00038913164 0)
(0.0593955 0.00038639022 0)
(0.058824797 0.0003837887 0)
(0.058257827 0.00038131858 0)
(0.057694406 0.00037897164 0)
(0.057134357 0.00037673997 0)
(0.056577514 0.00037461594 0)
(0.056023723 0.00037259215 0)
(0.055472837 0.00037066147 0)
(0.054924718 0.00036881702 0)
(0.05437924 0.00036705212 0)
(0.053836282 0.00036536031 0)
(0.053295736 0.00036373532 0)
(0.052757497 0.0003621711 0)
(0.052221474 0.00036066176 0)
(0.051687578 0.00035920158 0)
(0.051155733 0.00035778503 0)
(0.050625868 0.00035640671 0)
(0.050097918 0.00035506138 0)
(0.049571829 0.00035374396 0)
(0.049047551 0.00035244948 0)
(0.048525041 0.00035117313 0)
(0.048004266 0.00034991022 0)
(0.047485195 0.00034865618 0)
(0.046967806 0.00034740656 0)
(0.046452084 0.00034615704 0)
(0.04593802 0.00034490341 0)
(0.045425608 0.00034364158 0)
(0.044914852 0.00034236757 0)
(0.044405759 0.0003410775 0)
(0.043898344 0.00033976763 0)
(0.043392626 0.0003384343 0)
(0.042888629 0.000337074 0)
(0.042386383 0.00033568328 0)
(0.041885925 0.00033425885 0)
(0.041387293 0.00033279751 0)
(0.040890533 0.00033129618 0)
(0.040395696 0.00032975191 0)
(0.039902835 0.00032816184 0)
(0.039412009 0.00032652328 0)
(0.038923283 0.00032483361 0)
(0.038436722 0.00032309037 0)
(0.037952399 0.00032129124 0)
(0.03747039 0.000319434 0)
(0.036990772 0.00031751659 0)
(0.036513629 0.00031553709 0)
(0.036039046 0.00031349372 0)
(0.035567112 0.00031138484 0)
(0.035097919 0.00030920897 0)
(0.034631561 0.0003069648 0)
(0.034168137 0.00030465115 0)
(0.033707744 0.00030226704 0)
(0.033250485 0.00029981166 0)
(0.032796462 0.00029728441 0)
(0.032345781 0.00029468488 0)
(0.031898547 0.00029201292 0)
(0.031454867 0.00028926866 0)
(0.03101485 0.0002864526 0)
(0.030578602 0.00028356566 0)
(0.03014623 0.00028060939 0)
(0.029717839 0.00027758618 0)
(0.029293533 0.00027449966 0)
(0.028873409 0.00027135537 0)
(0.02845756 0.00026816181 0)
(0.028046065 0.00026493235 0)
(0.027638989 0.0002616888 0)
(0.027236367 0.00025846779 0)
(0.026838192 0.00025533455 0)
(0.026444385 0.00025240677 0)
(0.026054725 0.00024992277 0)
(0.025668843 0.00024832091 0)
(0.025285675 0.00024872704 0)
(0.024905042 0.00025286977 0)
(0.024520803 0.00026767744 0)
(0.024143877 0.00029501936 0)
(0.023604574 0.0004192085 0)
(-0.0015427921 0.0057398564 0)
(-0.0094213744 0.01022233 0)
(-0.017925535 0.011539115 0)
(-0.026191271 0.011746447 0)
(-0.033833053 0.011693717 0)
(-0.040853646 0.011578756 0)
(-0.047238252 0.011440654 0)
(-0.052969133 0.011284941 0)
(-0.058014349 0.011098285 0)
(-0.062316033 0.010842967 0)
(-0.065783876 0.010456026 0)
(-0.068295044 0.0098525052 0)
(-0.069697961 0.0089326647 0)
(-0.069823739 0.0075989305 0)
(-0.068505863 0.0057802336 0)
(-0.065604473 0.0034555423 0)
(-0.06102771 0.00068114808 0)
(-0.054835958 -0.0024245999 0)
(-0.047169361 -0.0057122836 0)
(-0.038113148 -0.0090420901 0)
(-0.027841722 -0.012272387 0)
(-0.016560641 -0.015257351 0)
(-0.0045054842 -0.017875264 0)
(0.0080800055 -0.020037072 0)
(0.020968469 -0.021686018 0)
(0.033963158 -0.022805752 0)
(0.046872526 -0.023414551 0)
(0.059532222 -0.02354038 0)
(0.071813486 -0.023233935 0)
(0.08361432 -0.022571109 0)
(0.09485404 -0.02162297 0)
(0.10547721 -0.020456916 0)
(0.11544879 -0.019135306 0)
(0.124749 -0.017712563 0)
(0.13337077 -0.016234731 0)
(0.14131746 -0.014739734 0)
(0.14860031 -0.013257852 0)
(0.15523625 -0.011812505 0)
(0.16124636 -0.010421203 0)
(0.16665461 -0.009096506 0)
(0.17148687 -0.007846916 0)
(0.17577024 -0.0066776705 0)
(0.17953249 -0.0055914272 0)
(0.18280169 -0.0045888383 0)
(0.18560592 -0.0036690204 0)
(0.18797308 -0.0028299367 0)
(0.1899307 -0.0020686977 0)
(0.19150584 -0.0013818207 0)
(0.19272503 -0.00076537651 0)
(0.19361404 -0.00021505832 0)
(0.19419885 0.00027357727 0)
(0.19450205 0.00070442334 0)
(0.19454674 0.0010815112 0)
(0.1943554 0.0014090216 0)
(0.19394963 0.0016911565 0)
(0.1933501 0.0019320061 0)
(0.19257647 0.002135482 0)
(0.19164736 0.0023052884 0)
(0.19058026 0.0024449046 0)
(0.18939159 0.0025575737 0)
(0.18809661 0.0026462997 0)
(0.18670952 0.0027138499 0)
(0.18524339 0.0027627612 0)
(0.18371027 0.0027953479 0)
(0.18212116 0.0028137127 0)
(0.1804861 0.0028197573 0)
(0.17881417 0.0028151954 0)
(0.17711361 0.0028015653 0)
(0.1753918 0.0027802423 0)
(0.17365534 0.002752452 0)
(0.17191011 0.0027192827 0)
(0.17016134 0.0026816969 0)
(0.16841362 0.0026405433 0)
(0.16667096 0.0025965672 0)
(0.16493687 0.0025504208 0)
(0.16321437 0.0025026726 0)
(0.16150605 0.002453816 0)
(0.15981412 0.0024042776 0)
(0.15814043 0.0023544242 0)
(0.15648649 0.0023045696 0)
(0.15485355 0.0022549807 0)
(0.15324261 0.002205883 0)
(0.15165442 0.0021574654 0)
(0.15008954 0.0021098847 0)
(0.14854837 0.0020632697 0)
(0.14703112 0.0020177244 0)
(0.14553788 0.0019733316 0)
(0.14406863 0.0019301553 0)
(0.14262324 0.0018882434 0)
(0.14120148 0.0018476299 0)
(0.13980305 0.0018083369 0)
(0.13842759 0.001770376 0)
(0.13707469 0.0017337501 0)
(0.13574388 0.0016984547 0)
(0.13443465 0.0016644791 0)
(0.13314648 0.0016318072 0)
(0.1318788 0.0016004185 0)
(0.13063105 0.0015702889 0)
(0.12940264 0.0015413914 0)
(0.12819296 0.0015136968 0)
(0.12700142 0.0014871738 0)
(0.12582742 0.0014617899 0)
(0.12467034 0.0014375113 0)
(0.12352959 0.0014143038 0)
(0.12240458 0.0013921326 0)
(0.12129471 0.0013709627 0)
(0.12019941 0.0013507592 0)
(0.11911811 0.0013314872 0)
(0.11805026 0.0013131123 0)
(0.1169953 0.0012956004 0)
(0.11595271 0.001278918 0)
(0.11492197 0.001263032 0)
(0.11390257 0.0012479102 0)
(0.11289403 0.001233521 0)
(0.11189587 0.0012198334 0)
(0.11090763 0.0012068174 0)
(0.10992886 0.0011944436 0)
(0.10895914 0.0011826835 0)
(0.10799805 0.0011715093 0)
(0.10704519 0.001160894 0)
(0.10610017 0.0011508113 0)
(0.10516263 0.0011412359 0)
(0.1042322 0.001132143 0)
(0.10330855 0.0011235087 0)
(0.10239134 0.0011153097 0)
(0.10148027 0.0011075235 0)
(0.10057504 0.0011001281 0)
(0.099675348 0.0010931023 0)
(0.098780934 0.0010864256 0)
(0.097891534 0.0010800778 0)
(0.097006902 0.0010740396 0)
(0.096126803 0.001068292 0)
(0.095251016 0.0010628167 0)
(0.094379329 0.0010575959 0)
(0.093511547 0.0010526123 0)
(0.092647481 0.0010478488 0)
(0.091786959 0.0010432891 0)
(0.090929817 0.0010389171 0)
(0.090075903 0.0010347172 0)
(0.089225076 0.0010306742 0)
(0.088377206 0.0010267732 0)
(0.087532175 0.0010229996 0)
(0.086689872 0.0010193394 0)
(0.0858502 0.0010157785 0)
(0.085013071 0.0010123036 0)
(0.084178405 0.0010089013 0)
(0.083346135 0.0010055587 0)
(0.082516202 0.0010022631 0)
(0.081688556 0.00099900219 0)
(0.080863159 0.00099576371 0)
(0.08003998 0.00099253585 0)
(0.079218999 0.000989307 0)
(0.078400202 0.00098606579 0)
(0.077583589 0.00098280114 0)
(0.076769163 0.0009795022 0)
(0.07595694 0.00097615837 0)
(0.075146944 0.00097275931 0)
(0.074339205 0.00096929495 0)
(0.073533764 0.00096575546 0)
(0.072730669 0.00096213128 0)
(0.071929975 0.00095841314 0)
(0.071131747 0.00095459202 0)
(0.070336056 0.0009506592 0)
(0.069542982 0.00094660624 0)
(0.06875261 0.000942425 0)
(0.067965034 0.00093810766 0)
(0.067180354 0.0009336467 0)
(0.066398679 0.00092903494 0)
(0.065620121 0.00092426552 0)
(0.064844802 0.00091933196 0)
(0.064072846 0.00091422812 0)
(0.063304386 0.00090894824 0)
(0.06253956 0.00090348693 0)
(0.061778511 0.00089783924 0)
(0.061021386 0.00089200062 0)
(0.060268338 0.00088596696 0)
(0.059519525 0.00087973464 0)
(0.058775107 0.00087330053 0)
(0.05803525 0.00086666205 0)
(0.057300121 0.00085981727 0)
(0.05656989 0.00085276495 0)
(0.055844733 0.00084550476 0)
(0.055124822 0.00083803746 0)
(0.054410333 0.00083036524 0)
(0.053701443 0.0008224923 0)
(0.052998324 0.00081442564 0)
(0.052301147 0.00080617646 0)
(0.051610075 0.00079776234 0)
(0.050925262 0.00078921094 0)
(0.050246846 0.00078056646 0)
(0.049574939 0.00077190047 0)
(0.048909612 0.00076333387 0)
(0.048250891 0.00075506845 0)
(0.047598676 0.00074748258 0)
(0.04695293 0.00074117394 0)
(0.04631275 0.00073762212 0)
(0.045680411 0.00073820292 0)
(0.045045611 0.00075170697 0)
(0.044462242 0.00077065705 0)
(0.043639618 0.00091403177 0)
(-0.0024198249 0.012082652 0)
(-0.012889459 0.019332108 0)
(-0.022414857 0.020365355 0)
(-0.030513964 0.01968235 0)
(-0.037053887 0.018676953 0)
(-0.042199426 0.017608418 0)
(-0.046019812 0.016512444 0)
(-0.048563058 0.015380828 0)
(-0.049848106 0.01417689 0)
(-0.049860441 0.012834192 0)
(-0.048557917 0.011266943 0)
(-0.045883301 0.009385486 0)
(-0.041776176 0.007095105 0)
(-0.036190693 0.0043100886 0)
(-0.029109948 0.00099638165 0)
(-0.020603351 -0.0028048877 0)
(-0.010822042 -0.0069777456 0)
(0.00011104174 -0.011365985 0)
(0.01199207 -0.015811156 0)
(0.024598557 -0.020135703 0)
(0.037720327 -0.02415929 0)
(0.051144787 -0.027722071 0)
(0.064662806 -0.030702007 0)
(0.078084224 -0.033017119 0)
(0.091248004 -0.034625606 0)
(0.10402527 -0.035535278 0)
(0.11631354 -0.035790519 0)
(0.12803691 -0.035459094 0)
(0.13914597 -0.034624368 0)
(0.14961322 -0.033377899 0)
(0.15942675 -0.03180951 0)
(0.16858698 -0.030003134 0)
(0.17710379 -0.028034311 0)
(0.18499341 -0.025968107 0)
(0.19227629 -0.023858498 0)
(0.19897569 -0.02174895 0)
(0.20511642 -0.019673461 0)
(0.21072384 -0.017657802 0)
(0.2158233 -0.015720812 0)
(0.22043975 -0.013875649 0)
(0.2245975 -0.012130903 0)
(0.22832014 -0.010491561 0)
(0.2316304 -0.0089598137 0)
(0.23455023 -0.0075357183 0)
(0.23710076 -0.0062177269 0)
(0.23930236 -0.0050031095 0)
(0.24117462 -0.003888284 0)
(0.24273649 -0.0028690792 0)
(0.24400617 -0.0019409327 0)
(0.24500128 -0.0010990686 0)
(0.24573868 -0.00033848061 0)
(0.24623561 0.00034604577 0)
(0.24650744 0.00095927058 0)
(0.24656896 0.001505887 0)
(0.24643444 0.0019905455 0)
(0.24611767 0.0024177786 0)
(0.24563201 0.0027919658 0)
(0.24499037 0.0031173262 0)
(0.24420525 0.0033979069 0)
(0.24328864 0.0036375683 0)
(0.24225207 0.0038399727 0)
(0.24110658 0.004008579 0)
(0.23986268 0.0041466387 0)
(0.23853039 0.004257196 0)
(0.23711916 0.0043430886 0)
(0.23563796 0.0044069516 0)
(0.23409517 0.0044512226 0)
(0.23249867 0.0044781483 0)
(0.23085582 0.0044897918 0)
(0.22917344 0.0044880414 0)
(0.22745787 0.0044746194 0)
(0.22571494 0.0044510917 0)
(0.22395004 0.004418877 0)
(0.22216807 0.004379257 0)
(0.22037351 0.0043333858 0)
(0.21857045 0.0042822991 0)
(0.21676256 0.0042269235 0)
(0.21495315 0.0041680853 0)
(0.21314519 0.0041065191 0)
(0.21134134 0.0040428753 0)
(0.20954393 0.003977728 0)
(0.20775502 0.0039115817 0)
(0.20597643 0.0038448783 0)
(0.20420972 0.0037780028 0)
(0.20245623 0.0037112893 0)
(0.20071711 0.0036450257 0)
(0.19899332 0.0035794589 0)
(0.19728565 0.0035147991 0)
(0.19559475 0.0034512236 0)
(0.19392112 0.0033888805 0)
(0.19226513 0.003327892 0)
(0.19062706 0.0032683575 0)
(0.18900707 0.0032103558 0)
(0.18740524 0.0031539483 0)
(0.18582156 0.0030991805 0)
(0.18425597 0.0030460843 0)
(0.18270833 0.0029946795 0)
(0.18117844 0.0029449756 0)
(0.17966609 0.0028969731 0)
(0.17817098 0.0028506648 0)
(0.1766928 0.0028060367 0)
(0.17523122 0.0027630693 0)
(0.17378587 0.0027217381 0)
(0.17235635 0.0026820147 0)
(0.17094226 0.0026438673 0)
(0.16954319 0.0026072612 0)
(0.1681587 0.0025721598 0)
(0.16678836 0.0025385244 0)
(0.16543172 0.0025063151 0)
(0.16408834 0.0024754907 0)
(0.16275777 0.0024460095 0)
(0.16143957 0.0024178294 0)
(0.16013329 0.0023909078 0)
(0.1588385 0.0023652022 0)
(0.15755476 0.0023406702 0)
(0.15628164 0.0023172696 0)
(0.15501873 0.0022949586 0)
(0.1537656 0.0022736959 0)
(0.15252185 0.0022534406 0)
(0.15128709 0.0022341524 0)
(0.15006093 0.0022157919 0)
(0.14884299 0.0021983202 0)
(0.1476329 0.0021816991 0)
(0.14643031 0.0021658912 0)
(0.14523488 0.0021508598 0)
(0.14404627 0.002136569 0)
(0.14286415 0.0021229837 0)
(0.14168822 0.0021100694 0)
(0.14051817 0.0020977924 0)
(0.13935372 0.0020861199 0)
(0.1381946 0.0020750195 0)
(0.13704052 0.0020644597 0)
(0.13589125 0.0020544096 0)
(0.13474654 0.002044839 0)
(0.13360615 0.0020357183 0)
(0.13246988 0.0020270186 0)
(0.1313375 0.0020187113 0)
(0.13020884 0.0020107688 0)
(0.1290837 0.0020031636 0)
(0.1279619 0.0019958691 0)
(0.1268433 0.001988859 0)
(0.12572774 0.0019821074 0)
(0.12461508 0.0019755891 0)
(0.1235052 0.0019692792 0)
(0.12239797 0.0019631532 0)
(0.1212933 0.0019571871 0)
(0.1201911 0.0019513573 0)
(0.11909127 0.0019456405 0)
(0.11799375 0.001940014 0)
(0.11689849 0.0019344551 0)
(0.11580542 0.0019289418 0)
(0.11471452 0.0019234525 0)
(0.11362576 0.0019179656 0)
(0.11253912 0.0019124602 0)
(0.11145459 0.0019069156 0)
(0.11037219 0.0019013116 0)
(0.10929193 0.0018956282 0)
(0.10821384 0.001889846 0)
(0.10713795 0.0018839457 0)
(0.10606431 0.0018779086 0)
(0.10499298 0.0018717165 0)
(0.10392404 0.0018653513 0)
(0.10285755 0.0018587955 0)
(0.10179361 0.0018520323 0)
(0.10073233 0.001845045 0)
(0.099673793 0.0018378175 0)
(0.098618136 0.0018303343 0)
(0.097565482 0.0018225804 0)
(0.096515967 0.0018145412 0)
(0.095469739 0.001806203 0)
(0.094426951 0.0017975525 0)
(0.093387768 0.0017885769 0)
(0.092352361 0.0017792643 0)
(0.09132091 0.0017696034 0)
(0.090293603 0.0017595837 0)
(0.089270634 0.0017491954 0)
(0.088252206 0.0017384295 0)
(0.087238528 0.0017272779 0)
(0.086229813 0.0017157336 0)
(0.085226285 0.0017037904 0)
(0.084228167 0.0016914437 0)
(0.083235693 0.0016786901 0)
(0.082249097 0.0016655282 0)
(0.081268617 0.0016519588 0)
(0.080294495 0.0016379861 0)
(0.079326973 0.0016236184 0)
(0.078366292 0.0016088704 0)
(0.077412692 0.0015937662 0)
(0.076466407 0.001578344 0)
(0.075527663 0.001562664 0)
(0.074596675 0.0015468215 0)
(0.073673634 0.0015309712 0)
(0.072758738 0.0015153546 0)
(0.071852084 0.0015004068 0)
(0.070954157 0.0014866991 0)
(0.070064041 0.001475778 0)
(0.069187502 0.0014678833 0)
(0.068304892 0.0014727169 0)
(0.067520389 0.00147 0)
(0.066383417 0.001599104 0)
(-0.0034582712 0.020551024 0)
(-0.015400713 0.029326432 0)
(-0.023064324 0.028354367 0)
(-0.027687078 0.025557487 0)
(-0.029933468 0.022723179 0)
(-0.030252552 0.020014769 0)
(-0.028841073 0.017412131 0)
(-0.025859129 0.014856726 0)
(-0.02141752 0.012273294 0)
(-0.015569233 0.0095683233 0)
(-0.0083387373 0.0066368797 0)
(0.00024331138 0.0033773148 0)
(0.010143365 -0.00029778359 0)
(0.021266818 -0.004424202 0)
(0.033435496 -0.0089721579 0)
(0.046460127 -0.013847334 0)
(0.060122603 -0.018916258 0)
(0.074194445 -0.024016749 0)
(0.088440513 -0.028970851 0)
(0.10263486 -0.033585833 0)
(0.116575 -0.037681855 0)
(0.13009011 -0.041116222 0)
(0.1430468 -0.043792315 0)
(0.15535056 -0.045662146 0)
(0.16694413 -0.046724533 0)
(0.17780288 -0.047020295 0)
(0.18792709 -0.046621355 0)
(0.19733506 -0.045618962 0)
(0.20605787 -0.04411411 0)
(0.2141339 -0.042210012 0)
(0.22160398 -0.040005275 0)
(0.22850851 -0.037589378 0)
(0.23488582 -0.035040425 0)
(0.24077116 -0.032424174 0)
(0.24619616 -0.029794173 0)
(0.25118905 -0.02719277 0)
(0.25577489 -0.024652494 0)
(0.25997602 -0.022197521 0)
(0.26381251 -0.019845122 0)
(0.26730259 -0.017606978 0)
(0.2704631 -0.015490335 0)
(0.27330973 -0.013498982 0)
(0.27585738 -0.011634041 0)
(0.27812026 -0.0098946173 0)
(0.28011209 -0.008278309 0)
(0.28184613 -0.0067816088 0)
(0.28333527 -0.0054002197 0)
(0.28459204 -0.0041293006 0)
(0.28562861 -0.0029636592 0)
(0.28645679 -0.0018978898 0)
(0.28708798 -0.00092651782 0)
(0.28753327 -4.4026586e-05 0)
(0.28780341 0.0007551416 0)
(0.28790873 0.0014763639 0)
(0.28785909 0.0021248629 0)
(0.28766384 0.0027056616 0)
(0.28733195 0.0032235631 0)
(0.28687198 0.0036831573 0)
(0.28629216 0.0040888248 0)
(0.28560035 0.0044447364 0)
(0.28480409 0.0047548515 0)
(0.28391062 0.0050229191 0)
(0.28292689 0.0052524795 0)
(0.28185956 0.0054468676 0)
(0.28071503 0.0056092169 0)
(0.27949944 0.0057424643 0)
(0.27821866 0.0058493558 0)
(0.27687832 0.0059324529 0)
(0.27548378 0.0059941387 0)
(0.27404017 0.0060366252 0)
(0.27255234 0.0060619607 0)
(0.27102492 0.0060720374 0)
(0.26946228 0.0060685985 0)
(0.26786855 0.0060532468 0)
(0.2662476 0.0060274518 0)
(0.2646031 0.0059925577 0)
(0.26293845 0.0059497913 0)
(0.26125685 0.0059002689 0)
(0.25956124 0.0058450042 0)
(0.25785439 0.0057849152 0)
(0.25613882 0.0057208308 0)
(0.25441688 0.0056534976 0)
(0.25269071 0.0055835863 0)
(0.25096226 0.0055116975 0)
(0.24923333 0.005438367 0)
(0.24750553 0.005364072 0)
(0.2457803 0.0052892352 0)
(0.24405897 0.00521423 0)
(0.2423427 0.0051393848 0)
(0.24063252 0.005064987 0)
(0.23892934 0.0049912869 0)
(0.23723397 0.0049185011 0)
(0.23554708 0.0048468157 0)
(0.23386927 0.0047763895 0)
(0.23220103 0.0047073566 0)
(0.23054279 0.0046398287 0)
(0.22889486 0.004573898 0)
(0.22725753 0.0045096386 0)
(0.22563097 0.0044471089 0)
(0.22401534 0.0043863533 0)
(0.22241072 0.0043274034 0)
(0.22081713 0.00427028 0)
(0.21923458 0.004214994 0)
(0.21766301 0.0041615477 0)
(0.21610234 0.0041099359 0)
(0.21455244 0.0040601467 0)
(0.21301319 0.0040121627 0)
(0.21148439 0.0039659614 0)
(0.20996588 0.0039215161 0)
(0.20845742 0.0038787963 0)
(0.2069588 0.0038377686 0)
(0.20546977 0.003798397 0)
(0.20399008 0.0037606431 0)
(0.20251947 0.0037244669 0)
(0.20105766 0.0036898269 0)
(0.19960439 0.0036566806 0)
(0.19815936 0.0036249844 0)
(0.1967223 0.0035946942 0)
(0.19529291 0.0035657653 0)
(0.19387091 0.0035381528 0)
(0.19245601 0.0035118117 0)
(0.19104792 0.0034866969 0)
(0.18964637 0.0034627636 0)
(0.18825106 0.0034399669 0)
(0.18686173 0.0034182625 0)
(0.1854781 0.0033976061 0)
(0.1840999 0.003377954 0)
(0.18272687 0.0033592629 0)
(0.18135876 0.0033414899 0)
(0.1799953 0.0033245926 0)
(0.17863627 0.0033085292 0)
(0.17728142 0.0032932581 0)
(0.17593053 0.0032787387 0)
(0.17458338 0.0032649303 0)
(0.17323975 0.0032517933 0)
(0.17189945 0.0032392882 0)
(0.17056227 0.0032273762 0)
(0.16922803 0.0032160189 0)
(0.16789656 0.0032051782 0)
(0.16656769 0.0031948169 0)
(0.16524126 0.0031848978 0)
(0.16391712 0.0031753844 0)
(0.16259514 0.0031662405 0)
(0.16127518 0.0031574303 0)
(0.15995714 0.0031489184 0)
(0.1586409 0.0031406699 0)
(0.15732636 0.0031326501 0)
(0.15601345 0.0031248248 0)
(0.15470208 0.0031171601 0)
(0.1533922 0.0031096224 0)
(0.15208374 0.0031021786 0)
(0.15077666 0.0030947958 0)
(0.14947094 0.0030874416 0)
(0.14816656 0.0030800839 0)
(0.1468635 0.0030726909 0)
(0.14556176 0.0030652313 0)
(0.14426137 0.0030576741 0)
(0.14296235 0.0030499887 0)
(0.14166473 0.003042145 0)
(0.14036856 0.0030341134 0)
(0.13907391 0.0030258644 0)
(0.13778085 0.0030173695 0)
(0.13648945 0.0030086003 0)
(0.13519982 0.0029995291 0)
(0.13391206 0.0029901288 0)
(0.13262629 0.0029803729 0)
(0.13134264 0.0029702354 0)
(0.13006124 0.0029596912 0)
(0.12878227 0.0029487157 0)
(0.12750586 0.0029372853 0)
(0.12623221 0.0029253769 0)
(0.1249615 0.0029129686 0)
(0.12369392 0.002900039 0)
(0.12242967 0.0028865681 0)
(0.12116899 0.0028725366 0)
(0.11991208 0.0028579263 0)
(0.11865919 0.0028427204 0)
(0.11741057 0.0028269031 0)
(0.11616647 0.0028104602 0)
(0.11492715 0.0027933787 0)
(0.11369288 0.0027756476 0)
(0.11246395 0.002757258 0)
(0.11124064 0.0027382032 0)
(0.11002324 0.0027184799 0)
(0.10881205 0.0026980887 0)
(0.10760737 0.0026770357 0)
(0.10640952 0.0026553348 0)
(0.1052188 0.0026330106 0)
(0.10403553 0.0026101035 0)
(0.10286003 0.0025866777 0)
(0.10169261 0.0025628322 0)
(0.1005336 0.0025387235 0)
(0.099383378 0.002514577 0)
(0.098242215 0.0024907962 0)
(0.097111153 0.0024677747 0)
(0.095988808 0.0024469319 0)
(0.094885087 0.0024271636 0)
(0.093766806 0.0024187954 0)
(0.092794075 0.0023913097 0)
(0.091331626 0.0024886669 0)
(-0.0048499668 0.031489774 0)
(-0.016013508 0.037473632 0)
(-0.016602334 0.0316335 0)
(-0.012895965 0.025840792 0)
(-0.0070836507 0.020874939 0)
(0.00033587275 0.016385173 0)