/*--------------------------------*- C++ -*----------------------------------*\
| =========                 |                                                 |
| \\      /  F ield         | OpenFOAM: The Open Source CFD Toolbox           |
|  \\    /   O peration     | Version:  2406                                  |
|   \\  /    A nd           | Website:  www.openfoam.com                      |
|    \\/     M anipulation  |                                                 |
\*---------------------------------------------------------------------------*/
FoamFile
{
    version     2.0;
    format      ascii;
    arch        "LSB;label=32;scalar=64";
    class       volVectorField;
    location    "330";
    object      C;
}
// * * * * * * * * * * * * * * * * * * * * * * * * * * * * * * * * * * * * * //

dimensions      [0 1 0 0 0 0 0];

internalField   nonuniform List<vector> 
16000
(
(1.25e-05 1.25e-05 5e-06)
(3.75e-05 1.25e-05 5e-06)
(6.25e-05 1.25e-05 5e-06)
(8.75e-05 1.25e-05 5e-06)
(0.0001125 1.25e-05 5e-06)
(0.0001375 1.25e-05 5e-06)
(0.0001625 1.25e-05 5e-06)
(0.0001875 1.25e-05 5e-06)
(0.0002125 1.25e-05 5e-06)
(0.0002375 1.25e-05 5e-06)
(0.0002625 1.25e-05 5e-06)
(0.0002875 1.25e-05 5e-06)
(0.0003125 1.25e-05 5e-06)
(0.0003375 1.25e-05 5e-06)
(0.0003625 1.25e-05 5e-06)
(0.0003875 1.25e-05 5e-06)
(0.0004125 1.25e-05 5e-06)
(0.0004375 1.25e-05 5e-06)
(0.0004625 1.25e-05 5e-06)
(0.0004875 1.25e-05 5e-06)
(0.0005125 1.25e-05 5e-06)
(0.0005375 1.25e-05 5e-06)
(0.0005625 1.25e-05 5e-06)
(0.0005875 1.25e-05 5e-06)
(0.0006125 1.25e-05 5e-06)
(0.0006375 1.25e-05 5e-06)
(0.0006625 1.25e-05 5e-06)
(0.0006875 1.25e-05 5e-06)
(0.0007125 1.25e-05 5e-06)
(0.0007375 1.25e-05 5e-06)
(0.0007625 1.25e-05 5e-06)
(0.0007875 1.25e-05 5e-06)
(0.0008125 1.25e-05 5e-06)
(0.0008375 1.25e-05 5e-06)
(0.0008625 1.25e-05 5e-06)
(0.0008875 1.25e-05 5e-06)
(0.0009125 1.25e-05 5e-06)
(0.0009375 1.25e-05 5e-06)
(0.0009625 1.25e-05 5e-06)
(0.0009875 1.25e-05 5e-06)
(0.0010125 1.25e-05 5e-06)
(0.0010375 1.25e-05 5e-06)
(0.0010625 1.25e-05 5e-06)
(0.0010875 1.25e-05 5e-06)
(0.0011125 1.25e-05 5e-06)
(0.0011375 1.25e-05 5e-06)
(0.0011625 1.25e-05 5e-06)
(0.0011875 1.25e-05 5e-06)
(0.0012125 1.25e-05 5e-06)
(0.0012375 1.25e-05 5e-06)
(0.0012625 1.25e-05 5e-06)
(0.0012875 1.25e-05 5e-06)
(0.0013125 1.25e-05 5e-06)
(0.0013375 1.25e-05 5e-06)
(0.0013625 1.25e-05 5e-06)
(0.0013875 1.25e-05 5e-06)
(0.0014125 1.25e-05 5e-06)
(0.0014375 1.25e-05 5e-06)
(0.0014625 1.25e-05 5e-06)
(0.0014875 1.25e-05 5e-06)
(0.0015125 1.25e-05 5e-06)
(0.0015375 1.25e-05 5e-06)
(0.0015625 1.25e-05 5e-06)
(0.0015875 1.25e-05 5e-06)
(0.0016125 1.25e-05 5e-06)
(0.0016375 1.25e-05 5e-06)
(0.0016625 1.25e-05 5e-06)
(0.0016875 1.25e-05 5e-06)
(0.0017125 1.25e-05 5e-06)
(0.0017375 1.25e-05 5e-06)
(0.0017625 1.25e-05 5e-06)
(0.0017875 1.25e-05 5e-06)
(0.0018125 1.25e-05 5e-06)
(0.0018375 1.25e-05 5e-06)
(0.0018625 1.25e-05 5e-06)
(0.0018875 1.25e-05 5e-06)
(0.0019125 1.25e-05 5e-06)
(0.0019375 1.25e-05 5e-06)
(0.0019625 1.25e-05 5e-06)
(0.0019875 1.25e-05 5e-06)
(0.0020125 1.25e-05 5e-06)
(0.0020375 1.25e-05 5e-06)
(0.0020625 1.25e-05 5e-06)
(0.0020875 1.25e-05 5e-06)
(0.0021125 1.25e-05 5e-06)
(0.0021375 1.25e-05 5e-06)
(0.0021625 1.25e-05 5e-06)
(0.0021875 1.25e-05 5e-06)
(0.0022125 1.25e-05 5e-06)
(0.0022375 1.25e-05 5e-06)
(0.0022625 1.25e-05 5e-06)
(0.0022875 1.25e-05 5e-06)
(0.0023125 1.25e-05 5e-06)
(0.0023375 1.25e-05 5e-06)
(0.0023625 1.25e-05 5e-06)
(0.0023875 1.25e-05 5e-06)
(0.0024125 1.25e-05 5e-06)
(0.0024375 1.25e-05 5e-06)
(0.0024625 1.25e-05 5e-06)
(0.0024875 1.25e-05 5e-06)
(0.0025125 1.25e-05 5e-06)
(0.0025375 1.25e-05 5e-06)
(0.0025625 1.25e-05 5e-06)
(0.0025875 1.25e-05 5e-06)
(0.0026125 1.25e-05 5e-06)
(0.0026375 1.25e-05 5e-06)
(0.0026625 1.25e-05 5e-06)
(0.0026875 1.25e-05 5e-06)
(0.0027125 1.25e-05 5e-06)
(0.0027375 1.25e-05 5e-06)
(0.0027625 1.25e-05 5e-06)
(0.0027875 1.25e-05 5e-06)
(0.0028125 1.25e-05 5e-06)
(0.0028375 1.25e-05 5e-06)
(0.0028625 1.25e-05 5e-06)
(0.0028875 1.25e-05 5e-06)
(0.0029125 1.25e-05 5e-06)
(0.0029375 1.25e-05 5e-06)
(0.0029625 1.25e-05 5e-06)
(0.0029875 1.25e-05 5e-06)
(0.0030125 1.25e-05 5e-06)
(0.0030375 1.25e-05 5e-06)
(0.0030625 1.25e-05 5e-06)
(0.0030875 1.25e-05 5e-06)
(0.0031125 1.25e-05 5e-06)
(0.0031375 1.25e-05 5e-06)
(0.0031625 1.25e-05 5e-06)
(0.0031875 1.25e-05 5e-06)
(0.0032125 1.25e-05 5e-06)
(0.0032375 1.25e-05 5e-06)
(0.0032625 1.25e-05 5e-06)
(0.0032875 1.25e-05 5e-06)
(0.0033125 1.25e-05 5e-06)
(0.0033375 1.25e-05 5e-06)
(0.0033625 1.25e-05 5e-06)
(0.0033875 1.25e-05 5e-06)
(0.0034125 1.25e-05 5e-06)
(0.0034375 1.25e-05 5e-06)
(0.0034625 1.25e-05 5e-06)
(0.0034875 1.25e-05 5e-06)
(0.0035125 1.25e-05 5e-06)
(0.0035375 1.25e-05 5e-06)
(0.0035625 1.25e-05 5e-06)
(0.0035875 1.25e-05 5e-06)
(0.0036125 1.25e-05 5e-06)
(0.0036375 1.25e-05 5e-06)
(0.0036625 1.25e-05 5e-06)
(0.0036875 1.25e-05 5e-06)
(0.0037125 1.25e-05 5e-06)
(0.0037375 1.25e-05 5e-06)
(0.0037625 1.25e-05 5e-06)
(0.0037875 1.25e-05 5e-06)
(0.0038125 1.25e-05 5e-06)
(0.0038375 1.25e-05 5e-06)
(0.0038625 1.25e-05 5e-06)
(0.0038875 1.25e-05 5e-06)
(0.0039125 1.25e-05 5e-06)
(0.0039375 1.25e-05 5e-06)
(0.0039625 1.25e-05 5e-06)
(0.0039875 1.25e-05 5e-06)
(0.0040125 1.25e-05 5e-06)
(0.0040375 1.25e-05 5e-06)
(0.0040625 1.25e-05 5e-06)
(0.0040875 1.25e-05 5e-06)
(0.0041125 1.25e-05 5e-06)
(0.0041375 1.25e-05 5e-06)
(0.0041625 1.25e-05 5e-06)
(0.0041875 1.25e-05 5e-06)
(0.0042125 1.25e-05 5e-06)
(0.0042375 1.25e-05 5e-06)
(0.0042625 1.25e-05 5e-06)
(0.0042875 1.25e-05 5e-06)
(0.0043125 1.25e-05 5e-06)
(0.0043375 1.25e-05 5e-06)
(0.0043625 1.25e-05 5e-06)
(0.0043875 1.25e-05 5e-06)
(0.0044125 1.25e-05 5e-06)
(0.0044375 1.25e-05 5e-06)
(0.0044625 1.25e-05 5e-06)
(0.0044875 1.25e-05 5e-06)
(0.0045125 1.25e-05 5e-06)
(0.0045375 1.25e-05 5e-06)
(0.0045625 1.25e-05 5e-06)
(0.0045875 1.25e-05 5e-06)
(0.0046125 1.25e-05 5e-06)
(0.0046375 1.25e-05 5e-06)
(0.0046625 1.25e-05 5e-06)
(0.0046875 1.25e-05 5e-06)
(0.0047125 1.25e-05 5e-06)
(0.0047375 1.25e-05 5e-06)
(0.0047625 1.25e-05 5e-06)
(0.0047875 1.25e-05 5e-06)
(0.0048125 1.25e-05 5e-06)
(0.0048375 1.25e-05 5e-06)
(0.0048625 1.25e-05 5e-06)
(0.0048875 1.25e-05 5e-06)
(0.0049125 1.25e-05 5e-06)
(0.0049375 1.25e-05 5e-06)
(0.0049625 1.25e-05 5e-06)
(0.0049875 1.25e-05 5e-06)
(0.0050125 1.25e-05 5e-06)
(0.0050375 1.25e-05 5e-06)
(0.0050625 1.25e-05 5e-06)
(0.0050875 1.25e-05 5e-06)
(0.0051125 1.25e-05 5e-06)
(0.0051375 1.25e-05 5e-06)
(0.0051625 1.25e-05 5e-06)
(0.0051875 1.25e-05 5e-06)
(0.0052125 1.25e-05 5e-06)
(0.0052375 1.25e-05 5e-06)
(0.0052625 1.25e-05 5e-06)
(0.0052875 1.25e-05 5e-06)
(0.0053125 1.25e-05 5e-06)
(0.0053375 1.25e-05 5e-06)
(0.0053625 1.25e-05 5e-06)
(0.0053875 1.25e-05 5e-06)
(0.0054125 1.25e-05 5e-06)
(0.0054375 1.25e-05 5e-06)
(0.0054625 1.25e-05 5e-06)
(0.0054875 1.25e-05 5e-06)
(0.0055125 1.25e-05 5e-06)
(0.0055375 1.25e-05 5e-06)
(0.0055625 1.25e-05 5e-06)
(0.0055875 1.25e-05 5e-06)
(0.0056125 1.25e-05 5e-06)
(0.0056375 1.25e-05 5e-06)
(0.0056625 1.25e-05 5e-06)
(0.0056875 1.25e-05 5e-06)
(0.0057125 1.25e-05 5e-06)
(0.0057375 1.25e-05 5e-06)
(0.0057625 1.25e-05 5e-06)
(0.0057875 1.25e-05 5e-06)
(0.0058125 1.25e-05 5e-06)
(0.0058375 1.25e-05 5e-06)
(0.0058625 1.25e-05 5e-06)
(0.0058875 1.25e-05 5e-06)
(0.0059125 1.25e-05 5e-06)
(0.0059375 1.25e-05 5e-06)
(0.0059625 1.25e-05 5e-06)
(0.0059875 1.25e-05 5e-06)
(0.0060125 1.25e-05 5e-06)
(0.0060375 1.25e-05 5e-06)
(0.0060625 1.25e-05 5e-06)
(0.0060875 1.25e-05 5e-06)
(0.0061125 1.25e-05 5e-06)
(0.0061375 1.25e-05 5e-06)
(0.0061625 1.25e-05 5e-06)
(0.0061875 1.25e-05 5e-06)
(0.0062125 1.25e-05 5e-06)
(0.0062375 1.25e-05 5e-06)
(0.0062625 1.25e-05 5e-06)
(0.0062875 1.25e-05 5e-06)
(0.0063125 1.25e-05 5e-06)
(0.0063375 1.25e-05 5e-06)
(0.0063625 1.25e-05 5e-06)
(0.0063875 1.25e-05 5e-06)
(0.0064125 1.25e-05 5e-06)
(0.0064375 1.25e-05 5e-06)
(0.0064625 1.25e-05 5e-06)
(0.0064875 1.25e-05 5e-06)
(0.0065125 1.25e-05 5e-06)
(0.0065375 1.25e-05 5e-06)
(0.0065625 1.25e-05 5e-06)
(0.0065875 1.25e-05 5e-06)
(0.0066125 1.25e-05 5e-06)
(0.0066375 1.25e-05 5e-06)
(0.0066625 1.25e-05 5e-06)
(0.0066875 1.25e-05 5e-06)
(0.0067125 1.25e-05 5e-06)
(0.0067375 1.25e-05 5e-06)
(0.0067625 1.25e-05 5e-06)
(0.0067875 1.25e-05 5e-06)
(0.0068125 1.25e-05 5e-06)
(0.0068375 1.25e-05 5e-06)
(0.0068625 1.25e-05 5e-06)
(0.0068875 1.25e-05 5e-06)
(0.0069125 1.25e-05 5e-06)
(0.0069375 1.25e-05 5e-06)
(0.0069625 1.25e-05 5e-06)
(0.0069875 1.25e-05 5e-06)
(0.0070125 1.25e-05 5e-06)
(0.0070375 1.25e-05 5e-06)
(0.0070625 1.25e-05 5e-06)
(0.0070875 1.25e-05 5e-06)
(0.0071125 1.25e-05 5e-06)
(0.0071375 1.25e-05 5e-06)
(0.0071625 1.25e-05 5e-06)
(0.0071875 1.25e-05 5e-06)
(0.0072125 1.25e-05 5e-06)
(0.0072375 1.25e-05 5e-06)
(0.0072625 1.25e-05 5e-06)
(0.0072875 1.25e-05 5e-06)
(0.0073125 1.25e-05 5e-06)
(0.0073375 1.25e-05 5e-06)
(0.0073625 1.25e-05 5e-06)
(0.0073875 1.25e-05 5e-06)
(0.0074125 1.25e-05 5e-06)
(0.0074375 1.25e-05 5e-06)
(0.0074625 1.25e-05 5e-06)
(0.0074875 1.25e-05 5e-06)
(0.0075125 1.25e-05 5e-06)
(0.0075375 1.25e-05 5e-06)
(0.0075625 1.25e-05 5e-06)
(0.0075875 1.25e-05 5e-06)
(0.0076125 1.25e-05 5e-06)
(0.0076375 1.25e-05 5e-06)
(0.0076625 1.25e-05 5e-06)
(0.0076875 1.25e-05 5e-06)
(0.0077125 1.25e-05 5e-06)
(0.0077375 1.25e-05 5e-06)
(0.0077625 1.25e-05 5e-06)
(0.0077875 1.25e-05 5e-06)
(0.0078125 1.25e-05 5e-06)
(0.0078375 1.25e-05 5e-06)
(0.0078625 1.25e-05 5e-06)
(0.0078875 1.25e-05 5e-06)
(0.0079125 1.25e-05 5e-06)
(0.0079375 1.25e-05 5e-06)
(0.0079625 1.25e-05 5e-06)
(0.0079875 1.25e-05 5e-06)
(0.0080125 1.25e-05 5e-06)
(0.0080375 1.25e-05 5e-06)
(0.0080625 1.25e-05 5e-06)
(0.0080875 1.25e-05 5e-06)
(0.0081125 1.25e-05 5e-06)
(0.0081375 1.25e-05 5e-06)
(0.0081625 1.25e-05 5e-06)
(0.0081875 1.25e-05 5e-06)
(0.0082125 1.25e-05 5e-06)
(0.0082375 1.25e-05 5e-06)
(0.0082625 1.25e-05 5e-06)
(0.0082875 1.25e-05 5e-06)
(0.0083125 1.25e-05 5e-06)
(0.0083375 1.25e-05 5e-06)
(0.0083625 1.25e-05 5e-06)
(0.0083875 1.25e-05 5e-06)
(0.0084125 1.25e-05 5e-06)
(0.0084375 1.25e-05 5e-06)
(0.0084625 1.25e-05 5e-06)
(0.0084875 1.25e-05 5e-06)
(0.0085125 1.25e-05 5e-06)
(0.0085375 1.25e-05 5e-06)
(0.0085625 1.25e-05 5e-06)
(0.0085875 1.25e-05 5e-06)
(0.0086125 1.25e-05 5e-06)
(0.0086375 1.25e-05 5e-06)
(0.0086625 1.25e-05 5e-06)
(0.0086875 1.25e-05 5e-06)
(0.0087125 1.25e-05 5e-06)
(0.0087375 1.25e-05 5e-06)
(0.0087625 1.25e-05 5e-06)
(0.0087875 1.25e-05 5e-06)
(0.0088125 1.25e-05 5e-06)
(0.0088375 1.25e-05 5e-06)
(0.0088625 1.25e-05 5e-06)
(0.0088875 1.25e-05 5e-06)
(0.0089125 1.25e-05 5e-06)
(0.0089375 1.25e-05 5e-06)
(0.0089625 1.25e-05 5e-06)
(0.0089875 1.25e-05 5e-06)
(0.0090125 1.25e-05 5e-06)
(0.0090375 1.25e-05 5e-06)
(0.0090625 1.25e-05 5e-06)
(0.0090875 1.25e-05 5e-06)
(0.0091125 1.25e-05 5e-06)
(0.0091375 1.25e-05 5e-06)
(0.0091625 1.25e-05 5e-06)
(0.0091875 1.25e-05 5e-06)
(0.0092125 1.25e-05 5e-06)
(0.0092375 1.25e-05 5e-06)
(0.0092625 1.25e-05 5e-06)
(0.0092875 1.25e-05 5e-06)
(0.0093125 1.25e-05 5e-06)
(0.0093375 1.25e-05 5e-06)
(0.0093625 1.25e-05 5e-06)
(0.0093875 1.25e-05 5e-06)
(0.0094125 1.25e-05 5e-06)
(0.0094375 1.25e-05 5e-06)
(0.0094625 1.25e-05 5e-06)
(0.0094875 1.25e-05 5e-06)
(0.0095125 1.25e-05 5e-06)
(0.0095375 1.25e-05 5e-06)
(0.0095625 1.25e-05 5e-06)
(0.0095875 1.25e-05 5e-06)
(0.0096125 1.25e-05 5e-06)
(0.0096375 1.25e-05 5e-06)
(0.0096625 1.25e-05 5e-06)
(0.0096875 1.25e-05 5e-06)
(0.0097125 1.25e-05 5e-06)
(0.0097375 1.25e-05 5e-06)
(0.0097625 1.25e-05 5e-06)
(0.0097875 1.25e-05 5e-06)
(0.0098125 1.25e-05 5e-06)
(0.0098375 1.25e-05 5e-06)
(0.0098625 1.25e-05 5e-06)
(0.0098875 1.25e-05 5e-06)
(0.0099125 1.25e-05 5e-06)
(0.0099375 1.25e-05 5e-06)
(0.0099625 1.25e-05 5e-06)
(0.0099875 1.25e-05 5e-06)
(1.25e-05 3.75e-05 5e-06)
(3.75e-05 3.75e-05 5e-06)
(6.25e-05 3.75e-05 5e-06)
(8.75e-05 3.75e-05 5e-06)
(0.0001125 3.75e-05 5e-06)
(0.0001375 3.75e-05 5e-06)
(0.0001625 3.75e-05 5e-06)
(0.0001875 3.75e-05 5e-06)
(0.0002125 3.75e-05 5e-06)
(0.0002375 3.75e-05 5e-06)
(0.0002625 3.75e-05 5e-06)
(0.0002875 3.75e-05 5e-06)
(0.0003125 3.75e-05 5e-06)
(0.0003375 3.75e-05 5e-06)
(0.0003625 3.75e-05 5e-06)
(0.0003875 3.75e-05 5e-06)
(0.0004125 3.75e-05 5e-06)
(0.0004375 3.75e-05 5e-06)
(0.0004625 3.75e-05 5e-06)
(0.0004875 3.75e-05 5e-06)
(0.0005125 3.75e-05 5e-06)
(0.0005375 3.75e-05 5e-06)
(0.0005625 3.75e-05 5e-06)
(0.0005875 3.75e-05 5e-06)
(0.0006125 3.75e-05 5e-06)
(0.0006375 3.75e-05 5e-06)
(0.0006625 3.75e-05 5e-06)
(0.0006875 3.75e-05 5e-06)
(0.0007125 3.75e-05 5e-06)
(0.0007375 3.75e-05 5e-06)
(0.0007625 3.75e-05 5e-06)
(0.0007875 3.75e-05 5e-06)
(0.0008125 3.75e-05 5e-06)
(0.0008375 3.75e-05 5e-06)
(0.0008625 3.75e-05 5e-06)
(0.0008875 3.75e-05 5e-06)
(0.0009125 3.75e-05 5e-06)
(0.0009375 3.75e-05 5e-06)
(0.0009625 3.75e-05 5e-06)
(0.0009875 3.75e-05 5e-06)
(0.0010125 3.75e-05 5e-06)
(0.0010375 3.75e-05 5e-06)
(0.0010625 3.75e-05 5e-06)
(0.0010875 3.75e-05 5e-06)
(0.0011125 3.75e-05 5e-06)
(0.0011375 3.75e-05 5e-06)
(0.0011625 3.75e-05 5e-06)
(0.0011875 3.75e-05 5e-06)
(0.0012125 3.75e-05 5e-06)
(0.0012375 3.75e-05 5e-06)
(0.0012625 3.75e-05 5e-06)
(0.0012875 3.75e-05 5e-06)
(0.0013125 3.75e-05 5e-06)
(0.0013375 3.75e-05 5e-06)
(0.0013625 3.75e-05 5e-06)
(0.0013875 3.75e-05 5e-06)
(0.0014125 3.75e-05 5e-06)
(0.0014375 3.75e-05 5e-06)
(0.0014625 3.75e-05 5e-06)
(0.0014875 3.75e-05 5e-06)
(0.0015125 3.75e-05 5e-06)
(0.0015375 3.75e-05 5e-06)
(0.0015625 3.75e-05 5e-06)
(0.0015875 3.75e-05 5e-06)
(0.0016125 3.75e-05 5e-06)
(0.0016375 3.75e-05 5e-06)
(0.0016625 3.75e-05 5e-06)
(0.0016875 3.75e-05 5e-06)
(0.0017125 3.75e-05 5e-06)
(0.0017375 3.75e-05 5e-06)
(0.0017625 3.75e-05 5e-06)
(0.0017875 3.75e-05 5e-06)
(0.0018125 3.75e-05 5e-06)
(0.0018375 3.75e-05 5e-06)
(0.0018625 3.75e-05 5e-06)
(0.0018875 3.75e-05 5e-06)
(0.0019125 3.75e-05 5e-06)
(0.0019375 3.75e-05 5e-06)
(0.0019625 3.75e-05 5e-06)
(0.0019875 3.75e-05 5e-06)
(0.0020125 3.75e-05 5e-06)
(0.0020375 3.75e-05 5e-06)
(0.0020625 3.75e-05 5e-06)
(0.0020875 3.75e-05 5e-06)
(0.0021125 3.75e-05 5e-06)
(0.0021375 3.75e-05 5e-06)
(0.0021625 3.75e-05 5e-06)
(0.0021875 3.75e-05 5e-06)
(0.0022125 3.75e-05 5e-06)
(0.0022375 3.75e-05 5e-06)
(0.0022625 3.75e-05 5e-06)
(0.0022875 3.75e-05 5e-06)
(0.0023125 3.75e-05 5e-06)
(0.0023375 3.75e-05 5e-06)
(0.0023625 3.75e-05 5e-06)
(0.0023875 3.75e-05 5e-06)
(0.0024125 3.75e-05 5e-06)
(0.0024375 3.75e-05 5e-06)
(0.0024625 3.75e-05 5e-06)
(0.0024875 3.75e-05 5e-06)
(0.0025125 3.75e-05 5e-06)
(0.0025375 3.75e-05 5e-06)
(0.0025625 3.75e-05 5e-06)
(0.0025875 3.75e-05 5e-06)
(0.0026125 3.75e-05 5e-06)
(0.0026375 3.75e-05 5e-06)
(0.0026625 3.75e-05 5e-06)
(0.0026875 3.75e-05 5e-06)
(0.0027125 3.75e-05 5e-06)
(0.0027375 3.75e-05 5e-06)
(0.0027625 3.75e-05 5e-06)
(0.0027875 3.75e-05 5e-06)
(0.0028125 3.75e-05 5e-06)
(0.0028375 3.75e-05 5e-06)
(0.0028625 3.75e-05 5e-06)
(0.0028875 3.75e-05 5e-06)
(0.0029125 3.75e-05 5e-06)
(0.0029375 3.75e-05 5e-06)
(0.0029625 3.75e-05 5e-06)
(0.0029875 3.75e-05 5e-06)
(0.0030125 3.75e-05 5e-06)
(0.0030375 3.75e-05 5e-06)
(0.0030625 3.75e-05 5e-06)
(0.0030875 3.75e-05 5e-06)
(0.0031125 3.75e-05 5e-06)
(0.0031375 3.75e-05 5e-06)
(0.0031625 3.75e-05 5e-06)
(0.0031875 3.75e-05 5e-06)
(0.0032125 3.75e-05 5e-06)
(0.0032375 3.75e-05 5e-06)
(0.0032625 3.75e-05 5e-06)
(0.0032875 3.75e-05 5e-06)
(0.0033125 3.75e-05 5e-06)
(0.0033375 3.75e-05 5e-06)
(0.0033625 3.75e-05 5e-06)
(0.0033875 3.75e-05 5e-06)
(0.0034125 3.75e-05 5e-06)
(0.0034375 3.75e-05 5e-06)
(0.0034625 3.75e-05 5e-06)
(0.0034875 3.75e-05 5e-06)
(0.0035125 3.75e-05 5e-06)
(0.0035375 3.75e-05 5e-06)
(0.0035625 3.75e-05 5e-06)
(0.0035875 3.75e-05 5e-06)
(0.0036125 3.75e-05 5e-06)
(0.0036375 3.75e-05 5e-06)
(0.0036625 3.75e-05 5e-06)
(0.0036875 3.75e-05 5e-06)
(0.0037125 3.75e-05 5e-06)
(0.0037375 3.75e-05 5e-06)
(0.0037625 3.75e-05 5e-06)
(0.0037875 3.75e-05 5e-06)
(0.0038125 3.75e-05 5e-06)
(0.0038375 3.75e-05 5e-06)
(0.0038625 3.75e-05 5e-06)
(0.0038875 3.75e-05 5e-06)
(0.0039125 3.75e-05 5e-06)
(0.0039375 3.75e-05 5e-06)
(0.0039625 3.75e-05 5e-06)
(0.0039875 3.75e-05 5e-06)
(0.0040125 3.75e-05 5e-06)
(0.0040375 3.75e-05 5e-06)
(0.0040625 3.75e-05 5e-06)
(0.0040875 3.75e-05 5e-06)
(0.0041125 3.75e-05 5e-06)
(0.0041375 3.75e-05 5e-06)
(0.0041625 3.75e-05 5e-06)
(0.0041875 3.75e-05 5e-06)
(0.0042125 3.75e-05 5e-06)
(0.0042375 3.75e-05 5e-06)
(0.0042625 3.75e-05 5e-06)
(0.0042875 3.75e-05 5e-06)
(0.0043125 3.75e-05 5e-06)
(0.0043375 3.75e-05 5e-06)
(0.0043625 3.75e-05 5e-06)
(0.0043875 3.75e-05 5e-06)
(0.0044125 3.75e-05 5e-06)
(0.0044375 3.75e-05 5e-06)
(0.0044625 3.75e-05 5e-06)
(0.0044875 3.75e-05 5e-06)
(0.0045125 3.75e-05 5e-06)
(0.0045375 3.75e-05 5e-06)
(0.0045625 3.75e-05 5e-06)
(0.0045875 3.75e-05 5e-06)
(0.0046125 3.75e-05 5e-06)
(0.0046375 3.75e-05 5e-06)
(0.0046625 3.75e-05 5e-06)
(0.0046875 3.75e-05 5e-06)
(0.0047125 3.75e-05 5e-06)
(0.0047375 3.75e-05 5e-06)
(0.0047625 3.75e-05 5e-06)
(0.0047875 3.75e-05 5e-06)
(0.0048125 3.75e-05 5e-06)
(0.0048375 3.75e-05 5e-06)
(0.0048625 3.75e-05 5e-06)
(0.0048875 3.75e-05 5e-06)
(0.0049125 3.75e-05 5e-06)
(0.0049375 3.75e-05 5e-06)
(0.0049625 3.75e-05 5e-06)
(0.0049875 3.75e-05 5e-06)
(0.0050125 3.75e-05 5e-06)
(0.0050375 3.75e-05 5e-06)
(0.0050625 3.75e-05 5e-06)
(0.0050875 3.75e-05 5e-06)
(0.0051125 3.75e-05 5e-06)
(0.0051375 3.75e-05 5e-06)
(0.0051625 3.75e-05 5e-06)
(0.0051875 3.75e-05 5e-06)
(0.0052125 3.75e-05 5e-06)
(0.0052375 3.75e-05 5e-06)
(0.0052625 3.75e-05 5e-06)
(0.0052875 3.75e-05 5e-06)
(0.0053125 3.75e-05 5e-06)
(0.0053375 3.75e-05 5e-06)
(0.0053625 3.75e-05 5e-06)
(0.0053875 3.75e-05 5e-06)
(0.0054125 3.75e-05 5e-06)
(0.0054375 3.75e-05 5e-06)
(0.0054625 3.75e-05 5e-06)
(0.0054875 3.75e-05 5e-06)
(0.0055125 3.75e-05 5e-06)
(0.0055375 3.75e-05 5e-06)
(0.0055625 3.75e-05 5e-06)
(0.0055875 3.75e-05 5e-06)
(0.0056125 3.75e-05 5e-06)
(0.0056375 3.75e-05 5e-06)
(0.0056625 3.75e-05 5e-06)
(0.0056875 3.75e-05 5e-06)
(0.0057125 3.75e-05 5e-06)
(0.0057375 3.75e-05 5e-06)
(0.0057625 3.75e-05 5e-06)
(0.0057875 3.75e-05 5e-06)
(0.0058125 3.75e-05 5e-06)
(0.0058375 3.75e-05 5e-06)
(0.0058625 3.75e-05 5e-06)
(0.0058875 3.75e-05 5e-06)
(0.0059125 3.75e-05 5e-06)
(0.0059375 3.75e-05 5e-06)
(0.0059625 3.75e-05 5e-06)
(0.0059875 3.75e-05 5e-06)
(0.0060125 3.75e-05 5e-06)
(0.0060375 3.75e-05 5e-06)
(0.0060625 3.75e-05 5e-06)
(0.0060875 3.75e-05 5e-06)
(0.0061125 3.75e-05 5e-06)
(0.0061375 3.75e-05 5e-06)
(0.0061625 3.75e-05 5e-06)
(0.0061875 3.75e-05 5e-06)
(0.0062125 3.75e-05 5e-06)
(0.0062375 3.75e-05 5e-06)
(0.0062625 3.75e-05 5e-06)
(0.0062875 3.75e-05 5e-06)
(0.0063125 3.75e-05 5e-06)
(0.0063375 3.75e-05 5e-06)
(0.0063625 3.75e-05 5e-06)
(0.0063875 3.75e-05 5e-06)
(0.0064125 3.75e-05 5e-06)
(0.0064375 3.75e-05 5e-06)
(0.0064625 3.75e-05 5e-06)
(0.0064875 3.75e-05 5e-06)
(0.0065125 3.75e-05 5e-06)
(0.0065375 3.75e-05 5e-06)
(0.0065625 3.75e-05 5e-06)
(0.0065875 3.75e-05 5e-06)
(0.0066125 3.75e-05 5e-06)
(0.0066375 3.75e-05 5e-06)
(0.0066625 3.75e-05 5e-06)
(0.0066875 3.75e-05 5e-06)
(0.0067125 3.75e-05 5e-06)
(0.0067375 3.75e-05 5e-06)
(0.0067625 3.75e-05 5e-06)
(0.0067875 3.75e-05 5e-06)
(0.0068125 3.75e-05 5e-06)
(0.0068375 3.75e-05 5e-06)
(0.0068625 3.75e-05 5e-06)
(0.0068875 3.75e-05 5e-06)
(0.0069125 3.75e-05 5e-06)
(0.0069375 3.75e-05 5e-06)
(0.0069625 3.75e-05 5e-06)
(0.0069875 3.75e-05 5e-06)
(0.0070125 3.75e-05 5e-06)
(0.0070375 3.75e-05 5e-06)
(0.0070625 3.75e-05 5e-06)
(0.0070875 3.75e-05 5e-06)
(0.0071125 3.75e-05 5e-06)
(0.0071375 3.75e-05 5e-06)
(0.0071625 3.75e-05 5e-06)
(0.0071875 3.75e-05 5e-06)
(0.0072125 3.75e-05 5e-06)
(0.0072375 3.75e-05 5e-06)
(0.0072625 3.75e-05 5e-06)
(0.0072875 3.75e-05 5e-06)
(0.0073125 3.75e-05 5e-06)
(0.0073375 3.75e-05 5e-06)
(0.0073625 3.75e-05 5e-06)
(0.0073875 3.75e-05 5e-06)
(0.0074125 3.75e-05 5e-06)
(0.0074375 3.75e-05 5e-06)
(0.0074625 3.75e-05 5e-06)
(0.0074875 3.75e-05 5e-06)
(0.0075125 3.75e-05 5e-06)
(0.0075375 3.75e-05 5e-06)
(0.0075625 3.75e-05 5e-06)
(0.0075875 3.75e-05 5e-06)
(0.0076125 3.75e-05 5e-06)
(0.0076375 3.75e-05 5e-06)
(0.0076625 3.75e-05 5e-06)
(0.0076875 3.75e-05 5e-06)
(0.0077125 3.75e-05 5e-06)
(0.0077375 3.75e-05 5e-06)
(0.0077625 3.75e-05 5e-06)
(0.0077875 3.75e-05 5e-06)
(0.0078125 3.75e-05 5e-06)
(0.0078375 3.75e-05 5e-06)
(0.0078625 3.75e-05 5e-06)
(0.0078875 3.75e-05 5e-06)
(0.0079125 3.75e-05 5e-06)
(0.0079375 3.75e-05 5e-06)
(0.0079625 3.75e-05 5e-06)
(0.0079875 3.75e-05 5e-06)
(0.0080125 3.75e-05 5e-06)
(0.0080375 3.75e-05 5e-06)
(0.0080625 3.75e-05 5e-06)
(0.0080875 3.75e-05 5e-06)
(0.0081125 3.75e-05 5e-06)
(0.0081375 3.75e-05 5e-06)
(0.0081625 3.75e-05 5e-06)
(0.0081875 3.75e-05 5e-06)
(0.0082125 3.75e-05 5e-06)
(0.0082375 3.75e-05 5e-06)
(0.0082625 3.75e-05 5e-06)
(0.0082875 3.75e-05 5e-06)
(0.0083125 3.75e-05 5e-06)
(0.0083375 3.75e-05 5e-06)
(0.0083625 3.75e-05 5e-06)
(0.0083875 3.75e-05 5e-06)
(0.0084125 3.75e-05 5e-06)
(0.0084375 3.75e-05 5e-06)
(0.0084625 3.75e-05 5e-06)
(0.0084875 3.75e-05 5e-06)
(0.0085125 3.75e-05 5e-06)
(0.0085375 3.75e-05 5e-06)
(0.0085625 3.75e-05 5e-06)
(0.0085875 3.75e-05 5e-06)
(0.0086125 3.75e-05 5e-06)
(0.0086375 3.75e-05 5e-06)
(0.0086625 3.75e-05 5e-06)
(0.0086875 3.75e-05 5e-06)
(0.0087125 3.75e-05 5e-06)
(0.0087375 3.75e-05 5e-06)
(0.0087625 3.75e-05 5e-06)
(0.0087875 3.75e-05 5e-06)
(0.0088125 3.75e-05 5e-06)
(0.0088375 3.75e-05 5e-06)
(0.0088625 3.75e-05 5e-06)
(0.0088875 3.75e-05 5e-06)
(0.0089125 3.75e-05 5e-06)
(0.0089375 3.75e-05 5e-06)
(0.0089625 3.75e-05 5e-06)
(0.0089875 3.75e-05 5e-06)
(0.0090125 3.75e-05 5e-06)
(0.0090375 3.75e-05 5e-06)
(0.0090625 3.75e-05 5e-06)
(0.0090875 3.75e-05 5e-06)
(0.0091125 3.75e-05 5e-06)
(0.0091375 3.75e-05 5e-06)
(0.0091625 3.75e-05 5e-06)
(0.0091875 3.75e-05 5e-06)
(0.0092125 3.75e-05 5e-06)
(0.0092375 3.75e-05 5e-06)
(0.0092625 3.75e-05 5e-06)
(0.0092875 3.75e-05 5e-06)
(0.0093125 3.75e-05 5e-06)
(0.0093375 3.75e-05 5e-06)
(0.0093625 3.75e-05 5e-06)
(0.0093875 3.75e-05 5e-06)
(0.0094125 3.75e-05 5e-06)
(0.0094375 3.75e-05 5e-06)
(0.0094625 3.75e-05 5e-06)
(0.0094875 3.75e-05 5e-06)
(0.0095125 3.75e-05 5e-06)
(0.0095375 3.75e-05 5e-06)
(0.0095625 3.75e-05 5e-06)
(0.0095875 3.75e-05 5e-06)
(0.0096125 3.75e-05 5e-06)
(0.0096375 3.75e-05 5e-06)
(0.0096625 3.75e-05 5e-06)
(0.0096875 3.75e-05 5e-06)
(0.0097125 3.75e-05 5e-06)
(0.0097375 3.75e-05 5e-06)
(0.0097625 3.75e-05 5e-06)
(0.0097875 3.75e-05 5e-06)
(0.0098125 3.75e-05 5e-06)
(0.0098375 3.75e-05 5e-06)
(0.0098625 3.75e-05 5e-06)
(0.0098875 3.75e-05 5e-06)
(0.0099125 3.75e-05 5e-06)
(0.0099375 3.75e-05 5e-06)
(0.0099625 3.75e-05 5e-06)
(0.0099875 3.75e-05 5e-06)
(1.25e-05 6.25e-05 5e-06)
(3.75e-05 6.25e-05 5e-06)
(6.25e-05 6.25e-05 5e-06)
(8.75e-05 6.25e-05 5e-06)
(0.0001125 6.25e-05 5e-06)
(0.0001375 6.25e-05 5e-06)
(0.0001625 6.25e-05 5e-06)
(0.0001875 6.25e-05 5e-06)
(0.0002125 6.25e-05 5e-06)
(0.0002375 6.25e-05 5e-06)
(0.0002625 6.25e-05 5e-06)
(0.0002875 6.25e-05 5e-06)
(0.0003125 6.25e-05 5e-06)
(0.0003375 6.25e-05 5e-06)
(0.0003625 6.25e-05 5e-06)
(0.0003875 6.25e-05 5e-06)
(0.0004125 6.25e-05 5e-06)
(0.0004375 6.25e-05 5e-06)
(0.0004625 6.25e-05 5e-06)
(0.0004875 6.25e-05 5e-06)
(0.0005125 6.25e-05 5e-06)
(0.0005375 6.25e-05 5e-06)
(0.0005625 6.25e-05 5e-06)
(0.0005875 6.25e-05 5e-06)
(0.0006125 6.25e-05 5e-06)
(0.0006375 6.25e-05 5e-06)
(0.0006625 6.25e-05 5e-06)
(0.0006875 6.25e-05 5e-06)
(0.0007125 6.25e-05 5e-06)
(0.0007375 6.25e-05 5e-06)
(0.0007625 6.25e-05 5e-06)
(0.0007875 6.25e-05 5e-06)
(0.0008125 6.25e-05 5e-06)
(0.0008375 6.25e-05 5e-06)
(0.0008625 6.25e-05 5e-06)
(0.0008875 6.25e-05 5e-06)
(0.0009125 6.25e-05 5e-06)
(0.0009375 6.25e-05 5e-06)
(0.0009625 6.25e-05 5e-06)
(0.0009875 6.25e-05 5e-06)
(0.0010125 6.25e-05 5e-06)
(0.0010375 6.25e-05 5e-06)
(0.0010625 6.25e-05 5e-06)
(0.0010875 6.25e-05 5e-06)
(0.0011125 6.25e-05 5e-06)
(0.0011375 6.25e-05 5e-06)
(0.0011625 6.25e-05 5e-06)
(0.0011875 6.25e-05 5e-06)
(0.0012125 6.25e-05 5e-06)
(0.0012375 6.25e-05 5e-06)
(0.0012625 6.25e-05 5e-06)
(0.0012875 6.25e-05 5e-06)
(0.0013125 6.25e-05 5e-06)
(0.0013375 6.25e-05 5e-06)
(0.0013625 6.25e-05 5e-06)
(0.0013875 6.25e-05 5e-06)
(0.0014125 6.25e-05 5e-06)
(0.0014375 6.25e-05 5e-06)
(0.0014625 6.25e-05 5e-06)
(0.0014875 6.25e-05 5e-06)
(0.0015125 6.25e-05 5e-06)
(0.0015375 6.25e-05 5e-06)
(0.0015625 6.25e-05 5e-06)
(0.0015875 6.25e-05 5e-06)
(0.0016125 6.25e-05 5e-06)
(0.0016375 6.25e-05 5e-06)
(0.0016625 6.25e-05 5e-06)
(0.0016875 6.25e-05 5e-06)
(0.0017125 6.25e-05 5e-06)
(0.0017375 6.25e-05 5e-06)
(0.0017625 6.25e-05 5e-06)
(0.0017875 6.25e-05 5e-06)
(0.0018125 6.25e-05 5e-06)
(0.0018375 6.25e-05 5e-06)
(0.0018625 6.25e-05 5e-06)
(0.0018875 6.25e-05 5e-06)
(0.0019125 6.25e-05 5e-06)
(0.0019375 6.25e-05 5e-06)
(0.0019625 6.25e-05 5e-06)
(0.0019875 6.25e-05 5e-06)
(0.0020125 6.25e-05 5e-06)
(0.0020375 6.25e-05 5e-06)
(0.0020625 6.25e-05 5e-06)
(0.0020875 6.25e-05 5e-06)
(0.0021125 6.25e-05 5e-06)
(0.0021375 6.25e-05 5e-06)
(0.0021625 6.25e-05 5e-06)
(0.0021875 6.25e-05 5e-06)
(0.0022125 6.25e-05 5e-06)
(0.0022375 6.25e-05 5e-06)
(0.0022625 6.25e-05 5e-06)
(0.0022875 6.25e-05 5e-06)
(0.0023125 6.25e-05 5e-06)
(0.0023375 6.25e-05 5e-06)
(0.0023625 6.25e-05 5e-06)
(0.0023875 6.25e-05 5e-06)
(0.0024125 6.25e-05 5e-06)
(0.0024375 6.25e-05 5e-06)
(0.0024625 6.25e-05 5e-06)
(0.0024875 6.25e-05 5e-06)
(0.0025125 6.25e-05 5e-06)
(0.0025375 6.25e-05 5e-06)
(0.0025625 6.25e-05 5e-06)
(0.0025875 6.25e-05 5e-06)
(0.0026125 6.25e-05 5e-06)
(0.0026375 6.25e-05 5e-06)
(0.0026625 6.25e-05 5e-06)
(0.0026875 6.25e-05 5e-06)
(0.0027125 6.25e-05 5e-06)
(0.0027375 6.25e-05 5e-06)
(0.0027625 6.25e-05 5e-06)
(0.0027875 6.25e-05 5e-06)
(0.0028125 6.25e-05 5e-06)
(0.0028375 6.25e-05 5e-06)
(0.0028625 6.25e-05 5e-06)
(0.0028875 6.25e-05 5e-06)
(0.0029125 6.25e-05 5e-06)
(0.0029375 6.25e-05 5e-06)
(0.0029625 6.25e-05 5e-06)
(0.0029875 6.25e-05 5e-06)
(0.0030125 6.25e-05 5e-06)
(0.0030375 6.25e-05 5e-06)
(0.0030625 6.25e-05 5e-06)
(0.0030875 6.25e-05 5e-06)
(0.0031125 6.25e-05 5e-06)
(0.0031375 6.25e-05 5e-06)
(0.0031625 6.25e-05 5e-06)
(0.0031875 6.25e-05 5e-06)
(0.0032125 6.25e-05 5e-06)
(0.0032375 6.25e-05 5e-06)
(0.0032625 6.25e-05 5e-06)
(0.0032875 6.25e-05 5e-06)
(0.0033125 6.25e-05 5e-06)
(0.0033375 6.25e-05 5e-06)
(0.0033625 6.25e-05 5e-06)
(0.0033875 6.25e-05 5e-06)
(0.0034125 6.25e-05 5e-06)
(0.0034375 6.25e-05 5e-06)
(0.0034625 6.25e-05 5e-06)
(0.0034875 6.25e-05 5e-06)
(0.0035125 6.25e-05 5e-06)
(0.0035375 6.25e-05 5e-06)
(0.0035625 6.25e-05 5e-06)
(0.0035875 6.25e-05 5e-06)
(0.0036125 6.25e-05 5e-06)
(0.0036375 6.25e-05 5e-06)
(0.0036625 6.25e-05 5e-06)
(0.0036875 6.25e-05 5e-06)
(0.0037125 6.25e-05 5e-06)
(0.0037375 6.25e-05 5e-06)
(0.0037625 6.25e-05 5e-06)
(0.0037875 6.25e-05 5e-06)
(0.0038125 6.25e-05 5e-06)
(0.0038375 6.25e-05 5e-06)
(0.0038625 6.25e-05 5e-06)
(0.0038875 6.25e-05 5e-06)
(0.0039125 6.25e-05 5e-06)
(0.0039375 6.25e-05 5e-06)
(0.0039625 6.25e-05 5e-06)
(0.0039875 6.25e-05 5e-06)
(0.0040125 6.25e-05 5e-06)
(0.0040375 6.25e-05 5e-06)
(0.0040625 6.25e-05 5e-06)
(0.0040875 6.25e-05 5e-06)
(0.0041125 6.25e-05 5e-06)
(0.0041375 6.25e-05 5e-06)
(0.0041625 6.25e-05 5e-06)
(0.0041875 6.25e-05 5e-06)
(0.0042125 6.25e-05 5e-06)
(0.0042375 6.25e-05 5e-06)
(0.0042625 6.25e-05 5e-06)
(0.0042875 6.25e-05 5e-06)
(0.0043125 6.25e-05 5e-06)
(0.0043375 6.25e-05 5e-06)
(0.0043625 6.25e-05 5e-06)
(0.0043875 6.25e-05 5e-06)
(0.0044125 6.25e-05 5e-06)
(0.0044375 6.25e-05 5e-06)
(0.0044625 6.25e-05 5e-06)
(0.0044875 6.25e-05 5e-06)
(0.0045125 6.25e-05 5e-06)
(0.0045375 6.25e-05 5e-06)
(0.0045625 6.25e-05 5e-06)
(0.0045875 6.25e-05 5e-06)
(0.0046125 6.25e-05 5e-06)
(0.0046375 6.25e-05 5e-06)
(0.0046625 6.25e-05 5e-06)
(0.0046875 6.25e-05 5e-06)
(0.0047125 6.25e-05 5e-06)
(0.0047375 6.25e-05 5e-06)
(0.0047625 6.25e-05 5e-06)
(0.0047875 6.25e-05 5e-06)
(0.0048125 6.25e-05 5e-06)
(0.0048375 6.25e-05 5e-06)
(0.0048625 6.25e-05 5e-06)
(0.0048875 6.25e-05 5e-06)
(0.0049125 6.25e-05 5e-06)
(0.0049375 6.25e-05 5e-06)
(0.0049625 6.25e-05 5e-06)
(0.0049875 6.25e-05 5e-06)
(0.0050125 6.25e-05 5e-06)
(0.0050375 6.25e-05 5e-06)
(0.0050625 6.25e-05 5e-06)
(0.0050875 6.25e-05 5e-06)
(0.0051125 6.25e-05 5e-06)
(0.0051375 6.25e-05 5e-06)
(0.0051625 6.25e-05 5e-06)
(0.0051875 6.25e-05 5e-06)
(0.0052125 6.25e-05 5e-06)
(0.0052375 6.25e-05 5e-06)
(0.0052625 6.25e-05 5e-06)
(0.0052875 6.25e-05 5e-06)
(0.0053125 6.25e-05 5e-06)
(0.0053375 6.25e-05 5e-06)
(0.0053625 6.25e-05 5e-06)
(0.0053875 6.25e-05 5e-06)
(0.0054125 6.25e-05 5e-06)
(0.0054375 6.25e-05 5e-06)
(0.0054625 6.25e-05 5e-06)
(0.0054875 6.25e-05 5e-06)
(0.0055125 6.25e-05 5e-06)
(0.0055375 6.25e-05 5e-06)
(0.0055625 6.25e-05 5e-06)
(0.0055875 6.25e-05 5e-06)
(0.0056125 6.25e-05 5e-06)
(0.0056375 6.25e-05 5e-06)
(0.0056625 6.25e-05 5e-06)
(0.0056875 6.25e-05 5e-06)
(0.0057125 6.25e-05 5e-06)
(0.0057375 6.25e-05 5e-06)
(0.0057625 6.25e-05 5e-06)
(0.0057875 6.25e-05 5e-06)
(0.0058125 6.25e-05 5e-06)
(0.0058375 6.25e-05 5e-06)
(0.0058625 6.25e-05 5e-06)
(0.0058875 6.25e-05 5e-06)
(0.0059125 6.25e-05 5e-06)
(0.0059375 6.25e-05 5e-06)
(0.0059625 6.25e-05 5e-06)
(0.0059875 6.25e-05 5e-06)
(0.0060125 6.25e-05 5e-06)
(0.0060375 6.25e-05 5e-06)
(0.0060625 6.25e-05 5e-06)
(0.0060875 6.25e-05 5e-06)
(0.0061125 6.25e-05 5e-06)
(0.0061375 6.25e-05 5e-06)
(0.0061625 6.25e-05 5e-06)
(0.0061875 6.25e-05 5e-06)
(0.0062125 6.25e-05 5e-06)
(0.0062375 6.25e-05 5e-06)
(0.0062625 6.25e-05 5e-06)
(0.0062875 6.25e-05 5e-06)
(0.0063125 6.25e-05 5e-06)
(0.0063375 6.25e-05 5e-06)
(0.0063625 6.25e-05 5e-06)
(0.0063875 6.25e-05 5e-06)
(0.0064125 6.25e-05 5e-06)
(0.0064375 6.25e-05 5e-06)
(0.0064625 6.25e-05 5e-06)
(0.0064875 6.25e-05 5e-06)
(0.0065125 6.25e-05 5e-06)
(0.0065375 6.25e-05 5e-06)
(0.0065625 6.25e-05 5e-06)
(0.0065875 6.25e-05 5e-06)
(0.0066125 6.25e-05 5e-06)
(0.0066375 6.25e-05 5e-06)
(0.0066625 6.25e-05 5e-06)
(0.0066875 6.25e-05 5e-06)
(0.0067125 6.25e-05 5e-06)
(0.0067375 6.25e-05 5e-06)
(0.0067625 6.25e-05 5e-06)
(0.0067875 6.25e-05 5e-06)
(0.0068125 6.25e-05 5e-06)
(0.0068375 6.25e-05 5e-06)
(0.0068625 6.25e-05 5e-06)
(0.0068875 6.25e-05 5e-06)
(0.0069125 6.25e-05 5e-06)
(0.0069375 6.25e-05 5e-06)