/*--------------------------------*- C++ -*----------------------------------*\
| =========                 |                                                 |
| \\      /  F ield         | OpenFOAM: The Open Source CFD Toolbox           |
|  \\    /   O peration     | Version:  2406                                  |
|   \\  /    A nd           | Website:  www.openfoam.com                      |
|    \\/     M anipulation  |                                                 |
\*---------------------------------------------------------------------------*/
FoamFile
{
    version     2.0;
    format      ascii;
    arch        "LSB;label=32;scalar=64";
    class       volScalarField;
    location    "330";
    object      p;
}
// * * * * * * * * * * * * * * * * * * * * * * * * * * * * * * * * * * * * * //

dimensions      [0 2 -2 0 0 0 0];

internalField   nonuniform List<scalar> 
16000
(
0.00090586647
0.00069336462
0.00059794804
0.0005547387
0.00052988857
0.00051481292
0.00050530193
0.0004988842
0.00049426582
0.00049075729
0.00048796591
0.00048565612
0.00048368002
0.0004819405
0.00048037126
0.00047892557
0.00047756969
0.00047627879
0.00047503436
0.00047382251
0.00047263276
0.0004714572
0.0004702899
0.00046912644
0.00046796356
0.00046679891
0.00046563086
0.00046445831
0.00046328058
0.0004620973
0.00046090834
0.00045971376
0.00045851374
0.00045730854
0.00045609848
0.00045488392
0.00045366523
0.00045244279
0.00045121695
0.00044998807
0.00044875649
0.00044752251
0.00044628642
0.00044504849
0.00044380894
0.00044256799
0.00044132583
0.00044008263
0.00043883854
0.00043759369
0.00043634819
0.00043510215
0.00043385565
0.00043260876
0.00043136155
0.00043011407
0.00042886637
0.0004276185
0.00042637047
0.00042512232
0.00042387408
0.00042262576
0.00042137738
0.00042012895
0.00041888048
0.00041763198
0.00041638346
0.00041513493
0.00041388638
0.00041263783
0.00041138927
0.00041014071
0.00040889215
0.00040764359
0.00040639503
0.00040514648
0.00040389792
0.00040264937
0.00040140082
0.00040015227
0.00039890372
0.00039765518
0.00039640664
0.0003951581
0.00039390956
0.00039266102
0.00039141249
0.00039016395
0.00038891542
0.00038766689
0.00038641836
0.00038516983
0.0003839213
0.00038267278
0.00038142425
0.00038017572
0.00037892719
0.00037767867
0.00037643014
0.00037518162
0.00037393309
0.00037268456
0.00037143604
0.00037018751
0.00036893899
0.00036769046
0.00036644194
0.00036519341
0.00036394489
0.00036269636
0.00036144784
0.00036019931
0.00035895079
0.00035770226
0.00035645374
0.00035520521
0.00035395669
0.00035270816
0.00035145964
0.00035021111
0.00034896259
0.00034771406
0.00034646553
0.00034521701
0.00034396848
0.00034271996
0.00034147143
0.00034022291
0.00033897438
0.00033772586
0.00033647733
0.0003352288
0.00033398028
0.00033273175
0.00033148323
0.0003302347
0.00032898618
0.00032773765
0.00032648912
0.0003252406
0.00032399207
0.00032274355
0.00032149502
0.0003202465
0.00031899797
0.00031774944
0.00031650092
0.00031525239
0.00031400387
0.00031275534
0.00031150682
0.00031025829
0.00030900976
0.00030776124
0.00030651271
0.00030526419
0.00030401566
0.00030276714
0.00030151861
0.00030027008
0.00029902156
0.00029777303
0.00029652451
0.00029527598
0.00029402746
0.00029277893
0.00029153041
0.00029028188
0.00028903336
0.00028778483
0.00028653631
0.00028528778
0.00028403926
0.00028279073
0.00028154221
0.00028029369
0.00027904516
0.00027779664
0.00027654811
0.00027529959
0.00027405106
0.00027280254
0.00027155402
0.00027030549
0.00026905697
0.00026780844
0.00026655992
0.0002653114
0.00026406287
0.00026281435
0.00026156583
0.0002603173
0.00025906878
0.00025782026
0.00025657173
0.00025532321
0.00025407469
0.00025282617
0.00025157764
0.00025032912
0.0002490806
0.00024783207
0.00024658355
0.00024533503
0.00024408651
0.00024283798
0.00024158946
0.00024034094
0.00023909241
0.00023784389
0.00023659537
0.00023534685
0.00023409832
0.0002328498
0.00023160128
0.00023035276
0.00022910423
0.00022785571
0.00022660719
0.00022535866
0.00022411014
0.00022286162
0.0002216131
0.00022036457
0.00021911605
0.00021786753
0.000216619
0.00021537048
0.00021412196
0.00021287343
0.00021162491
0.00021037639
0.00020912786
0.00020787934
0.00020663081
0.00020538229
0.00020413377
0.00020288524
0.00020163672
0.00020038819
0.00019913967
0.00019789115
0.00019664262
0.0001953941
0.00019414557
0.00019289705
0.00019164852
0.0001904
0.00018915147
0.00018790295
0.00018665442
0.0001854059
0.00018415737
0.00018290885
0.00018166032
0.0001804118
0.00017916327
0.00017791475
0.00017666622
0.0001754177
0.00017416917
0.00017292064
0.00017167212
0.00017042359
0.00016917507
0.00016792654
0.00016667802
0.00016542949
0.00016418096
0.00016293244
0.00016168391
0.00016043539
0.00015918686
0.00015793834
0.00015668981
0.00015544128
0.00015419276
0.00015294423
0.00015169571
0.00015044718
0.00014919865
0.00014795013
0.0001467016
0.00014545308
0.00014420455
0.00014295603
0.0001417075
0.00014045897
0.00013921045
0.00013796192
0.0001367134
0.00013546487
0.00013421635
0.00013296782
0.0001317193
0.00013047077
0.00012922225
0.00012797372
0.00012672519
0.00012547667
0.00012422814
0.00012297962
0.00012173109
0.00012048257
0.00011923404
0.00011798552
0.00011673699
0.00011548847
0.00011423995
0.00011299142
0.0001117429
0.00011049437
0.00010924585
0.00010799732
0.0001067488
0.00010550027
0.00010425175
0.00010300323
0.0001017547
0.00010050618
9.9257653e-05
9.8009128e-05
9.6760604e-05
9.5512081e-05
9.4263557e-05
9.3015033e-05
9.1766509e-05
9.0517985e-05
8.9269461e-05
8.8020937e-05
8.6772414e-05
8.552389e-05
8.4275366e-05
8.3026843e-05
8.1778319e-05
8.0529796e-05
7.9281272e-05
7.8032748e-05
7.6784225e-05
7.5535701e-05
7.4287178e-05
7.3038654e-05
7.1790131e-05
7.0541607e-05
6.9293084e-05
6.804456e-05
6.6796036e-05
6.5547513e-05
6.4298989e-05
6.3050466e-05
6.1801942e-05
6.0553418e-05
5.9304895e-05
5.8056371e-05
5.6807847e-05
5.5559324e-05
5.43108e-05
5.3062276e-05
5.1813752e-05
5.0565229e-05
4.9316705e-05
4.8068181e-05
4.6819657e-05
4.5571133e-05
4.4322609e-05
4.3074084e-05
4.182556e-05
4.0577036e-05
3.9328512e-05
3.8079987e-05
3.6831463e-05
3.5582938e-05
3.4334413e-05
3.3085888e-05
3.1837363e-05
3.0588838e-05
2.9340313e-05
2.8091788e-05
2.6843262e-05
2.5594736e-05
2.434621e-05
2.3097684e-05
2.1849157e-05
2.060063e-05
1.9352104e-05
1.8103577e-05
1.685505e-05
1.5606522e-05
1.4357995e-05
1.3109468e-05
1.1860941e-05
1.0612415e-05
9.3638883e-06
8.1153628e-06
6.8668382e-06
5.6183146e-06
4.3697925e-06
3.1212724e-06
1.8727533e-06
6.2423608e-07
0.00071266276
0.00063598402
0.00058593644
0.0005554079
0.00053464681
0.00052034039
0.00051036003
0.00050316571
0.00049778907
0.00049363043
0.0004903071
0.0004875689
0.00048524851
0.00048323124
0.00048143655
0.00047980667
0.00047829941
0.00047688346
0.00047553532
0.0004742372
0.00047297553
0.00047173995
0.00047052253
0.00046931723
0.00046811946
0.00046692576
0.00046573356
0.00046454099
0.0004633467
0.00046214977
0.00046094962
0.0004597459
0.00045853844
0.00045732723
0.00045611234
0.00045489392
0.00045367219
0.00045244735
0.00045121967
0.00044998939
0.00044875675
0.000447522
0.00044628537
0.00044504706
0.00044380728
0.0004425662
0.000441324
0.00044008082
0.00043883678
0.00043759202
0.00043634663
0.0004351007
0.00043385432
0.00043260755
0.00043136046
0.0004301131
0.00042886551
0.00042761773
0.0004263698
0.00042512174
0.00042387357
0.00042262532
0.000421377
0.00042012862
0.0004188802
0.00041763174
0.00041638326
0.00041513476
0.00041388624
0.00041263771
0.00041138918
0.00041014063
0.00040889209
0.00040764354
0.00040639499
0.00040514644
0.00040389789
0.00040264934
0.0004014008
0.00040015225
0.00039890371
0.00039765517
0.00039640663
0.00039515809
0.00039390955
0.00039266102
0.00039141249
0.00039016395
0.00038891542
0.00038766689
0.00038641836
0.00038516983
0.0003839213
0.00038267278
0.00038142425
0.00038017572
0.00037892719
0.00037767867
0.00037643014
0.00037518162
0.00037393309
0.00037268457
0.00037143604
0.00037018751
0.00036893899
0.00036769046
0.00036644194
0.00036519341
0.00036394489
0.00036269636
0.00036144784
0.00036019931
0.00035895079
0.00035770226
0.00035645374
0.00035520521
0.00035395669
0.00035270816
0.00035145964
0.00035021111
0.00034896259
0.00034771406
0.00034646553
0.00034521701
0.00034396848
0.00034271996
0.00034147143
0.00034022291
0.00033897438
0.00033772586
0.00033647733
0.0003352288
0.00033398028
0.00033273175
0.00033148323
0.0003302347
0.00032898618
0.00032773765
0.00032648912
0.0003252406
0.00032399207
0.00032274355
0.00032149502
0.0003202465
0.00031899797
0.00031774944
0.00031650092
0.00031525239
0.00031400387
0.00031275534
0.00031150682
0.00031025829
0.00030900976
0.00030776124
0.00030651271
0.00030526419
0.00030401566
0.00030276714
0.00030151861
0.00030027008
0.00029902156
0.00029777303
0.00029652451
0.00029527598
0.00029402746
0.00029277893
0.00029153041
0.00029028188
0.00028903336
0.00028778483
0.00028653631
0.00028528778
0.00028403926
0.00028279073
0.00028154221
0.00028029369
0.00027904516
0.00027779664
0.00027654811
0.00027529959
0.00027405106
0.00027280254
0.00027155402
0.00027030549
0.00026905697
0.00026780844
0.00026655992
0.0002653114
0.00026406287
0.00026281435
0.00026156583
0.0002603173
0.00025906878
0.00025782026
0.00025657173
0.00025532321
0.00025407469
0.00025282617
0.00025157764
0.00025032912
0.0002490806
0.00024783207
0.00024658355
0.00024533503
0.00024408651
0.00024283798
0.00024158946
0.00024034094
0.00023909241
0.00023784389
0.00023659537
0.00023534685
0.00023409832
0.0002328498
0.00023160128
0.00023035276
0.00022910423
0.00022785571
0.00022660719
0.00022535866
0.00022411014
0.00022286162
0.0002216131
0.00022036457
0.00021911605
0.00021786753
0.000216619
0.00021537048
0.00021412196
0.00021287343
0.00021162491
0.00021037639
0.00020912786
0.00020787934
0.00020663081
0.00020538229
0.00020413377
0.00020288524
0.00020163672
0.00020038819
0.00019913967
0.00019789115
0.00019664262
0.0001953941
0.00019414557
0.00019289705
0.00019164852
0.0001904
0.00018915147
0.00018790295
0.00018665442
0.0001854059
0.00018415737
0.00018290885
0.00018166032
0.0001804118
0.00017916327
0.00017791475
0.00017666622
0.0001754177
0.00017416917
0.00017292064
0.00017167212
0.00017042359
0.00016917507
0.00016792654
0.00016667802
0.00016542949
0.00016418096
0.00016293244
0.00016168391
0.00016043539
0.00015918686
0.00015793834
0.00015668981
0.00015544128
0.00015419276
0.00015294423
0.00015169571
0.00015044718
0.00014919865
0.00014795013
0.0001467016
0.00014545308
0.00014420455
0.00014295603
0.0001417075
0.00014045897
0.00013921045
0.00013796192
0.0001367134
0.00013546487
0.00013421635
0.00013296782
0.0001317193
0.00013047077
0.00012922225
0.00012797372
0.00012672519
0.00012547667
0.00012422814
0.00012297962
0.00012173109
0.00012048257
0.00011923404
0.00011798552
0.00011673699
0.00011548847
0.00011423995
0.00011299142
0.0001117429
0.00011049437
0.00010924585
0.00010799732
0.0001067488
0.00010550027
0.00010425175
0.00010300323
0.0001017547
0.00010050618
9.9257653e-05
9.8009129e-05
9.6760604e-05
9.5512081e-05
9.4263557e-05
9.3015033e-05
9.1766509e-05
9.0517985e-05
8.9269461e-05
8.8020937e-05
8.6772414e-05
8.552389e-05
8.4275366e-05
8.3026843e-05
8.1778319e-05
8.0529796e-05
7.9281272e-05
7.8032748e-05
7.6784225e-05
7.5535701e-05
7.4287178e-05
7.3038654e-05
7.1790131e-05
7.0541607e-05
6.9293084e-05
6.804456e-05
6.6796036e-05
6.5547513e-05
6.4298989e-05
6.3050466e-05
6.1801942e-05
6.0553418e-05
5.9304895e-05
5.8056371e-05
5.6807847e-05
5.5559324e-05
5.43108e-05
5.3062276e-05
5.1813752e-05
5.0565228e-05
4.9316705e-05
4.8068181e-05
4.6819657e-05
4.5571133e-05
4.4322608e-05
4.3074084e-05
4.182556e-05
4.0577036e-05
3.9328511e-05
3.8079987e-05
3.6831463e-05
3.5582938e-05
3.4334413e-05
3.3085888e-05
3.1837363e-05
3.0588838e-05
2.9340313e-05
2.8091788e-05
2.6843262e-05
2.5594737e-05
2.4346211e-05
2.3097685e-05
2.1849158e-05
2.0600632e-05
1.9352106e-05
1.8103579e-05
1.6855052e-05
1.5606526e-05
1.4357999e-05
1.3109473e-05
1.1860947e-05
1.0612421e-05
9.3638953e-06
8.1153706e-06
6.8668467e-06
5.618324e-06
4.3698025e-06
3.1212831e-06
1.8727644e-06
6.2424002e-07
0.0006220998
0.0005975729
0.0005733556
0.00055252578
0.0005358738
0.00052314893
0.00051352296
0.00050617187
0.00050046282
0.00049593738
0.00049226872
0.00048922539
0.00048664296
0.00048440353
0.00048242148
0.00048063385
0.00047899373
0.00047746582
0.00047602323
0.00047464538
0.0004733164
0.00047202399
0.00047075861
0.00046951288
0.00046828106
0.00046705875
0.00046584254
0.00046462988
0.00046341883
0.00046220796
0.00046099624
0.00045978296
0.00045856765
0.00045735
0.00045612987
0.00045490722
0.00045368207
0.00045245451
0.00045122467
0.00044999269
0.00044875875
0.000447523
0.00044628561
0.00044504675
0.00044380658
0.00044256524
0.00044132287
0.00044007959
0.00043883552
0.00043759076
0.00043634541
0.00043509954
0.00043385323
0.00043260654
0.00043135954
0.00043011226
0.00042886475
0.00042761705
0.0004263692
0.0004251212
0.0004238731
0.00042262491
0.00042137664
0.00042012831
0.00041887993
0.00041763151
0.00041638306
0.00041513459
0.0004138861
0.00041263759
0.00041138907
0.00041014055
0.00040889202
0.00040764348
0.00040639494
0.0004051464
0.00040389786
0.00040264932
0.00040140078
0.00040015224
0.0003989037
0.00039765516
0.00039640662
0.00039515809
0.00039390955
0.00039266102
0.00039141248
0.00039016395
0.00038891542
0.00038766689
0.00038641836
0.00038516983
0.0003839213
0.00038267278
0.00038142425
0.00038017572
0.0003789272
0.00037767867
0.00037643014
0.00037518162
0.00037393309
0.00037268457
0.00037143604
0.00037018752
0.00036893899
0.00036769046
0.00036644194
0.00036519341
0.00036394489
0.00036269636
0.00036144784
0.00036019931
0.00035895079
0.00035770226
0.00035645374
0.00035520521
0.00035395669
0.00035270816
0.00035145964
0.00035021111
0.00034896259
0.00034771406
0.00034646553
0.00034521701
0.00034396848
0.00034271996
0.00034147143
0.00034022291
0.00033897438
0.00033772586
0.00033647733
0.0003352288
0.00033398028
0.00033273175
0.00033148323
0.0003302347
0.00032898618
0.00032773765
0.00032648912
0.0003252406
0.00032399207
0.00032274355
0.00032149502
0.0003202465
0.00031899797
0.00031774944
0.00031650092
0.00031525239
0.00031400387
0.00031275534
0.00031150682
0.00031025829
0.00030900976
0.00030776124
0.00030651271
0.00030526419
0.00030401566
0.00030276714
0.00030151861
0.00030027008
0.00029902156
0.00029777303
0.00029652451
0.00029527598
0.00029402746
0.00029277893
0.00029153041
0.00029028188
0.00028903336
0.00028778483
0.00028653631
0.00028528778
0.00028403926
0.00028279073
0.00028154221
0.00028029369
0.00027904516
0.00027779664
0.00027654811
0.00027529959
0.00027405106
0.00027280254
0.00027155402
0.00027030549
0.00026905697
0.00026780844
0.00026655992
0.0002653114
0.00026406287
0.00026281435
0.00026156583
0.0002603173
0.00025906878
0.00025782026
0.00025657173
0.00025532321
0.00025407469
0.00025282617
0.00025157764
0.00025032912
0.0002490806
0.00024783207
0.00024658355
0.00024533503
0.00024408651
0.00024283798
0.00024158946
0.00024034094
0.00023909241
0.00023784389
0.00023659537
0.00023534685
0.00023409832
0.0002328498
0.00023160128
0.00023035276
0.00022910423
0.00022785571
0.00022660719
0.00022535866
0.00022411014
0.00022286162
0.0002216131
0.00022036457
0.00021911605
0.00021786753
0.000216619
0.00021537048
0.00021412196
0.00021287343
0.00021162491
0.00021037639
0.00020912786
0.00020787934
0.00020663081
0.00020538229
0.00020413377
0.00020288524
0.00020163672
0.00020038819
0.00019913967
0.00019789115
0.00019664262
0.0001953941
0.00019414557
0.00019289705
0.00019164852
0.0001904
0.00018915147
0.00018790295
0.00018665442
0.0001854059
0.00018415737
0.00018290885
0.00018166032
0.0001804118
0.00017916327
0.00017791475
0.00017666622
0.0001754177
0.00017416917
0.00017292064
0.00017167212
0.00017042359
0.00016917507
0.00016792654
0.00016667802
0.00016542949
0.00016418096
0.00016293244
0.00016168391
0.00016043539
0.00015918686
0.00015793834
0.00015668981
0.00015544128
0.00015419276
0.00015294423
0.00015169571
0.00015044718
0.00014919865
0.00014795013
0.0001467016
0.00014545308
0.00014420455
0.00014295603
0.0001417075
0.00014045897
0.00013921045
0.00013796192
0.0001367134
0.00013546487
0.00013421635
0.00013296782
0.0001317193
0.00013047077
0.00012922225
0.00012797372
0.00012672519
0.00012547667
0.00012422814
0.00012297962
0.00012173109
0.00012048257
0.00011923404
0.00011798552
0.00011673699
0.00011548847
0.00011423995
0.00011299142
0.0001117429
0.00011049437
0.00010924585
0.00010799732
0.0001067488
0.00010550027
0.00010425175
0.00010300323
0.0001017547
0.00010050618
9.9257653e-05
9.8009129e-05
9.6760604e-05
9.5512081e-05
9.4263557e-05
9.3015033e-05
9.1766509e-05
9.0517985e-05
8.9269461e-05
8.8020937e-05
8.6772414e-05
8.552389e-05
8.4275366e-05
8.3026843e-05
8.1778319e-05
8.0529796e-05
7.9281272e-05
7.8032748e-05
7.6784225e-05
7.5535701e-05
7.4287178e-05
7.3038654e-05
7.1790131e-05
7.0541607e-05
6.9293084e-05
6.804456e-05
6.6796036e-05
6.5547513e-05
6.4298989e-05
6.3050466e-05
6.1801942e-05
6.0553418e-05
5.9304895e-05
5.8056371e-05
5.6807847e-05
5.5559324e-05
5.43108e-05
5.3062276e-05
5.1813752e-05
5.0565228e-05
4.9316704e-05
4.806818e-05
4.6819656e-05
4.5571132e-05
4.4322608e-05
4.3074084e-05
4.182556e-05
4.0577036e-05
3.9328511e-05
3.8079987e-05
3.6831462e-05
3.5582938e-05
3.4334413e-05
3.3085888e-05
3.1837363e-05
3.0588838e-05
2.9340313e-05
2.8091788e-05
2.6843263e-05
2.5594737e-05
2.4346211e-05
2.3097686e-05
2.184916e-05
2.0600634e-05
1.9352108e-05
1.8103582e-05
1.6855055e-05
1.5606529e-05
1.4358003e-05
1.3109478e-05
1.1860952e-05
1.0612427e-05
9.3639022e-06
8.1153782e-06
6.866855e-06
5.6183329e-06
4.369812e-06
3.1212931e-06
1.8727751e-06
6.2424235e-07
0.00057919555
0.00057039247
0.00055810657
0.00054462321
0.00053242361
0.00052220768
0.00051387733
0.00050713328
0.00050165824
0.00049717167
0.00049344537
0.00049030141
0.00048760367
0.00048524868
0.00048315779
0.00048127101
0.00047954233
0.00047793626
0.00047642528
0.00047498791
0.00047360735
0.0004722704
0.00047096669
0.00046968804
0.00046842804
0.00046718165
0.00046594494
0.00046471487
0.00046348907
0.00046226575
0.00046104356
0.0004598215
0.00045859884
0.00045737509
0.00045614989
0.00045492306
0.00045369448
0.00045246411
0.00045123199
0.00044999818
0.00044876276
0.00044752584
0.00044628753
0.00044504796
0.00044380723
0.00044256548
0.0004413228
0.0004400793
0.00043883507
0.00043759021
0.0004363448
0.00043509891
0.00043385259
0.00043260592
0.00043135894
0.0004301117
0.00042886423
0.00042761657
0.00042636876
0.00042512081
0.00042387275
0.00042262459
0.00042137636
0.00042012806
0.00041887971
0.00041763132
0.0004163829
0.00041513445
0.00041388598
0.00041263749
0.00041138898
0.00041014047
0.00040889195
0.00040764342
0.00040639489
0.00040514636
0.00040389783
0.00040264929
0.00040140075
0.00040015222
0.00039890368
0.00039765515
0.00039640661
0.00039515808
0.00039390954
0.00039266101
0.00039141248
0.00039016395
0.00038891542
0.00038766689
0.00038641836
0.00038516983
0.0003839213
0.00038267278
0.00038142425
0.00038017572
0.0003789272
0.00037767867
0.00037643014
0.00037518162
0.00037393309
0.00037268457
0.00037143604
0.00037018752
0.00036893899
0.00036769046
0.00036644194
0.00036519341
0.00036394489
0.00036269636
0.00036144784
0.00036019931
0.00035895079
0.00035770226
0.00035645374
0.00035520521
0.00035395669
0.00035270816
0.00035145964
0.00035021111
0.00034896259
0.00034771406
0.00034646554
0.00034521701
0.00034396848
0.00034271996
0.00034147143
0.00034022291
0.00033897438
0.00033772586
0.00033647733
0.0003352288
0.00033398028
0.00033273175
0.00033148323
0.0003302347
0.00032898618
0.00032773765
0.00032648912
0.0003252406
0.00032399207
0.00032274355
0.00032149502
0.0003202465
0.00031899797
0.00031774944
0.00031650092
0.00031525239
0.00031400387
0.00031275534
0.00031150682
0.00031025829
0.00030900976
0.00030776124
0.00030651271
0.00030526419
0.00030401566
0.00030276714
0.00030151861
0.00030027008
0.00029902156
0.00029777303
0.00029652451
0.00029527598
0.00029402746
0.00029277893
0.00029153041
0.00029028188
0.00028903336
0.00028778483
0.00028653631
0.00028528778
0.00028403926
0.00028279073
0.00028154221
0.00028029369
0.00027904516
0.00027779664
0.00027654811
0.00027529959
0.00027405106
0.00027280254
0.00027155402
0.00027030549
0.00026905697
0.00026780844
0.00026655992
0.0002653114
0.00026406287
0.00026281435
0.00026156583
0.0002603173
0.00025906878
0.00025782026
0.00025657173
0.00025532321
0.00025407469
0.00025282617
0.00025157764
0.00025032912
0.0002490806
0.00024783207
0.00024658355
0.00024533503
0.00024408651
0.00024283798
0.00024158946
0.00024034094
0.00023909241
0.00023784389
0.00023659537
0.00023534685
0.00023409832
0.0002328498
0.00023160128
0.00023035276
0.00022910423
0.00022785571
0.00022660719
0.00022535866
0.00022411014
0.00022286162
0.0002216131
0.00022036457
0.00021911605
0.00021786753
0.000216619
0.00021537048
0.00021412196
0.00021287343
0.00021162491
0.00021037639
0.00020912786
0.00020787934
0.00020663081
0.00020538229
0.00020413377
0.00020288524
0.00020163672
0.00020038819
0.00019913967
0.00019789115
0.00019664262
0.0001953941
0.00019414557
0.00019289705
0.00019164852
0.0001904
0.00018915147
0.00018790295
0.00018665442
0.0001854059
0.00018415737
0.00018290885
0.00018166032
0.0001804118
0.00017916327
0.00017791475
0.00017666622
0.0001754177
0.00017416917
0.00017292064
0.00017167212
0.00017042359
0.00016917507
0.00016792654
0.00016667802
0.00016542949
0.00016418096
0.00016293244
0.00016168391
0.00016043539
0.00015918686
0.00015793834
0.00015668981
0.00015544128
0.00015419276
0.00015294423
0.00015169571
0.00015044718
0.00014919865
0.00014795013
0.0001467016
0.00014545308
0.00014420455
0.00014295603
0.0001417075
0.00014045897
0.00013921045
0.00013796192
0.0001367134
0.00013546487
0.00013421635
0.00013296782
0.0001317193
0.00013047077
0.00012922225
0.00012797372
0.00012672519
0.00012547667
0.00012422814
0.00012297962
0.00012173109
0.00012048257
0.00011923404
0.00011798552
0.00011673699
0.00011548847
0.00011423995
0.00011299142
0.0001117429
0.00011049437
0.00010924585
0.00010799732
0.0001067488
0.00010550027
0.00010425175
0.00010300323
0.0001017547
0.00010050618
9.9257653e-05
9.8009129e-05
9.6760604e-05
9.5512081e-05
9.4263557e-05
9.3015033e-05
9.1766509e-05
9.0517985e-05
8.9269461e-05
8.8020937e-05
8.6772414e-05
8.552389e-05
8.4275366e-05
8.3026843e-05
8.1778319e-05
8.0529796e-05
7.9281272e-05
7.8032748e-05
7.6784225e-05
7.5535701e-05
7.4287178e-05
7.3038654e-05
7.1790131e-05
7.0541607e-05
6.9293084e-05
6.804456e-05
6.6796036e-05
6.5547513e-05
6.4298989e-05
6.3050466e-05
6.1801942e-05
6.0553418e-05
5.9304895e-05
5.8056371e-05
5.6807847e-05
5.5559324e-05
5.43108e-05
5.3062276e-05
5.1813752e-05
5.0565228e-05
4.9316704e-05
4.806818e-05
4.6819656e-05
4.5571132e-05
4.4322608e-05
4.3074084e-05
4.182556e-05
4.0577036e-05
3.9328511e-05
3.8079987e-05
3.6831462e-05
3.5582938e-05
3.4334413e-05
3.3085888e-05
3.1837364e-05
3.0588839e-05
2.9340314e-05
2.8091788e-05
2.6843263e-05
2.5594738e-05
2.4346212e-05
2.3097687e-05
2.1849161e-05
2.0600635e-05
1.935211e-05
1.8103584e-05
1.6855058e-05
1.5606533e-05
1.4358007e-05
1.3109482e-05
1.1860957e-05
1.0612432e-05
9.3639078e-06
8.1153843e-06
6.8668616e-06
5.6183398e-06
4.369819e-06
3.1213003e-06
1.8727827e-06
6.2424384e-07
0.00055234471
0.00055006484
0.00054416981
0.00053584461
0.00052733168
0.00051953282
0.00051270082
0.00050684677
0.00050187533
0.00049765376
0.0004940488
0.00049094192
0.00048823345
0.00048584198
0.0004837021
0.00048176162
0.00047997905
0.00047832142
0.00047676251
0.00047528143
0.00047386154
0.00047248955
0.00047115486
0.00046984898
0.00046856519
0.00046729809
0.00046604344
0.00046479788
0.00046355876
0.00046232403
0.00046109209
0.00045986173
0.00045863204
0.00045740234
0.00045617215
0.00045494113
0.00045370905
0.00045247578
0.00045124125
0.00045000546
0.00044876842
0.00044753017
0.0004462908
0.00044505036
0.00044380896
0.00044256666
0.00044132356
0.00044007973
0.00043883526
0.00043759022
0.00043634467
0.00043509868
0.00043385231
0.0004326056
0.0004313586
0.00043011135
0.00042886389
0.00042761624
0.00042636844
0.00042512052
0.00042387248
0.00042262434
0.00042137613
0.00042012786
0.00041887953
0.00041763116
0.00041638276
0.00041513433
0.00041388587
0.00041263739
0.0004113889
0.0004101404
0.00040889189
0.00040764337
0.00040639485
0.00040514632
0.0004038978
0.00040264926
0.00040140073
0.0004001522
0.00039890367
0.00039765513
0.0003964066
0.00039515807
0.00039390954
0.00039266101
0.00039141248
0.00039016395
0.00038891542
0.00038766689
0.00038641836
0.00038516983
0.0003839213
0.00038267278
0.00038142425
0.00038017572
0.0003789272
0.00037767867
0.00037643014
0.00037518162
0.00037393309
0.00037268457
0.00037143604
0.00037018752
0.00036893899
0.00036769046
0.00036644194
0.00036519341
0.00036394489
0.00036269636
0.00036144784
0.00036019931
0.00035895079
0.00035770226
0.00035645374
0.00035520521
0.00035395669
0.00035270816
0.00035145964
0.00035021111
0.00034896259
0.00034771406
0.00034646554
0.00034521701
0.00034396848
0.00034271996
0.00034147143
0.00034022291
0.00033897438
0.00033772586
0.00033647733
0.0003352288
0.00033398028
0.00033273175
0.00033148323
0.0003302347
0.00032898618
0.00032773765
0.00032648912
0.0003252406
0.00032399207
0.00032274355
0.00032149502
0.0003202465
0.00031899797
0.00031774944
0.00031650092
0.00031525239
0.00031400387
0.00031275534
0.00031150682
0.00031025829
0.00030900976
0.00030776124
0.00030651271
0.00030526419
0.00030401566
0.00030276714
0.00030151861
0.00030027008
0.00029902156
0.00029777303
0.00029652451
0.00029527598
0.00029402746
0.00029277893
0.00029153041
0.00029028188
0.00028903336
0.00028778483
0.00028653631
0.00028528778
0.00028403926
0.00028279073
0.00028154221
0.00028029369
0.00027904516
0.00027779664
0.00027654811
0.00027529959
0.00027405106
0.00027280254
0.00027155402
0.00027030549
0.00026905697
0.00026780844
0.00026655992
0.0002653114
0.00026406287
0.00026281435
0.00026156583
0.0002603173
0.00025906878
0.00025782026
0.00025657173
0.00025532321
0.00025407469
0.00025282617
0.00025157764
0.00025032912
0.0002490806
0.00024783207
0.00024658355
0.00024533503
0.00024408651
0.00024283798
0.00024158946
0.00024034094
0.00023909241
0.00023784389
0.00023659537
0.00023534685
0.00023409832
0.0002328498
0.00023160128
0.00023035276
0.00022910423
0.00022785571
0.00022660719
0.00022535866
0.00022411014
0.00022286162
0.0002216131
0.00022036457
0.00021911605
0.00021786753
0.000216619
0.00021537048
0.00021412196
0.00021287343
0.00021162491
0.00021037639
0.00020912786
0.00020787934
0.00020663081
0.00020538229
0.00020413377
0.00020288524
0.00020163672
0.00020038819
0.00019913967
0.00019789115
0.00019664262
0.0001953941
0.00019414557
0.00019289705
0.00019164852
0.0001904
0.00018915147
0.00018790295
0.00018665442
0.0001854059
0.00018415737
0.00018290885
0.00018166032
0.0001804118
0.00017916327
0.00017791475
0.00017666622
0.0001754177
0.00017416917
0.00017292064
0.00017167212
0.00017042359
0.00016917507
0.00016792654
0.00016667802
0.00016542949
0.00016418096
0.00016293244
0.00016168391
0.00016043539
0.00015918686
0.00015793834
0.00015668981
0.00015544128
0.00015419276
0.00015294423
0.00015169571
0.00015044718
0.00014919865
0.00014795013
0.0001467016
0.00014545308
0.00014420455
0.00014295603
0.0001417075
0.00014045897
0.00013921045
0.00013796192
0.0001367134
0.00013546487
0.00013421635
0.00013296782
0.0001317193
0.00013047077
0.00012922225
0.00012797372
0.00012672519
0.00012547667
0.00012422814
0.00012297962
0.00012173109
0.00012048257
0.00011923404
0.00011798552
0.00011673699
0.00011548847
0.00011423995
0.00011299142
0.0001117429
0.00011049437
0.00010924585
0.00010799732
0.0001067488
0.00010550027
0.00010425175
0.00010300323
0.0001017547
0.00010050618
9.9257653e-05
9.8009129e-05
9.6760604e-05
9.5512081e-05
9.4263557e-05
9.3015033e-05
9.1766509e-05
9.0517985e-05
8.9269461e-05
8.8020937e-05
8.6772414e-05
8.552389e-05
8.4275366e-05
8.3026843e-05
8.1778319e-05
8.0529796e-05
7.9281272e-05
7.8032748e-05
7.6784225e-05
7.5535701e-05
7.4287178e-05
7.3038654e-05
7.1790131e-05
7.0541607e-05
6.9293084e-05
6.804456e-05
6.6796036e-05
6.5547513e-05
6.4298989e-05
6.3050466e-05
6.1801942e-05
6.0553418e-05
5.9304895e-05
5.8056371e-05
5.6807847e-05
5.5559324e-05
5.43108e-05
5.3062276e-05
5.1813752e-05
5.0565228e-05
4.9316704e-05
4.806818e-05
4.6819656e-05
4.5571132e-05
4.4322608e-05
4.3074084e-05
4.182556e-05
4.0577035e-05
3.9328511e-05
3.8079987e-05
3.6831462e-05
3.5582938e-05
3.4334413e-05
3.3085889e-05
3.1837364e-05
3.0588839e-05
2.9340314e-05
2.8091789e-05
2.6843264e-05
2.5594739e-05
2.4346213e-05
2.3097688e-05
2.1849163e-05
2.0600637e-05
1.9352112e-05
1.8103586e-05
1.6855061e-05
1.5606536e-05
1.435801e-05
1.3109485e-05
1.1860961e-05
1.0612437e-05
9.3639127e-06
8.1153895e-06
6.866867e-06
5.6183454e-06
4.3698246e-06
3.1213059e-06
1.8727886e-06
6.2424557e-07
0.00053461269
0.00053513369
0.0005326911
0.00052772094
0.00052192559
0.00051612761
0.00051069145
0.0005057747
0.00050141225
0.00049757334
0.00049419914
0.00049122308
0.00048858083
0.00048621461
0.00048407461
0.00048211886
0.00048031253
0.00047862692
0.00047703854
0.00047552821
0.0004740803
0.00047268213
0.00047132336
0.00046999565
0.00046869223
0.00046740765
0.00046613752
0.00046487834
0.00046362729
0.00046238217
0.00046114123
0.00045990309
0.0004586667
0.00045743127
0.00045619618
0.000454961
0.00045372539
0.00045248915
0.00045125213
0.00045001424
0.00044877546
0.00044753578
0.00044629522
0.00044505381
0.0004438116
0.00044256866
0.00044132504
0.0004400808
0.000438836
0.0004375907
0.00043634496
0.00043509881
0.00043385233
0.00043260553
0.00043135848
0.00043011119
0.0004288637
0.00042761605
0.00042636824
0.00042512031
0.00042387228
0.00042262416
0.00042137596
0.0004201277
0.00041887939
0.00041763103
0.00041638264
0.00041513422
0.00041388577
0.00041263731
0.00041138883
0.00041014034
0.00040889183
0.00040764332
0.00040639481
0.00040514629
0.00040389776
0.00040264924
0.00040140071
0.00040015218
0.00039890365
0.00039765512
0.00039640659
0.00039515806
0.00039390953
0.000392661
0.00039141247
0.00039016394
0.00038891541
0.00038766688
0.00038641836
0.00038516983
0.0003839213
0.00038267277
0.00038142425
0.00038017572