/*--------------------------------*- C++ -*----------------------------------*\
| =========                 |                                                 |
| \\      /  F ield         | OpenFOAM: The Open Source CFD Toolbox           |
|  \\    /   O peration     | Version:  2406                                  |
|   \\  /    A nd           | Website:  www.openfoam.com                      |
|    \\/     M anipulation  |                                                 |
\*---------------------------------------------------------------------------*/
FoamFile
{
    version     2.0;
    format      ascii;
    arch        "LSB;label=32;scalar=64";
    class       surfaceScalarField;
    location    "330";
    object      phi;
}
// * * * * * * * * * * * * * * * * * * * * * * * * * * * * * * * * * * * * * //

dimensions      [0 3 -1 0 0 0 0];

oriented        oriented;

internalField   nonuniform List<scalar> 
31560
(
7.7978041e-13
2.6188626e-13
5.4952331e-13
2.3025709e-13
4.0110087e-13
1.4842244e-13
3.0558174e-13
9.5519133e-14
2.4318175e-13
6.2399992e-14
2.014322e-13
4.1749544e-14
1.725201e-13
2.8912106e-14
1.5176207e-13
2.0758027e-14
1.3636964e-13
1.5392435e-14
1.2464622e-13
1.172341e-14
1.1552631e-13
9.1199114e-15
1.0831621e-13
7.2101076e-15
1.025471e-13
5.769105e-15
9.7890585e-14
4.6565149e-15
9.4108962e-14
3.7816232e-15
9.1025218e-14
3.0837435e-15
8.8504309e-14
2.520909e-15
8.644111e-14
2.0631983e-15
8.4752427e-14
1.6886838e-15
8.3371525e-14
1.3809014e-15
8.2244302e-14
1.1272236e-15
8.1326515e-14
9.1778621e-16
8.0581754e-14
7.4476133e-16
7.9979901e-14
6.0185358e-16
7.9495957e-14
4.8394339e-16
7.9109128e-14
3.8682915e-16
7.8802091e-14
3.0703721e-16
7.8560412e-14
2.4167929e-16
7.8372069e-14
1.8834344e-16
7.8227059e-14
1.4500942e-16
7.8117078e-14
1.0998177e-16
7.8035242e-14
8.1836284e-17
7.7975866e-14
5.9376385e-17
7.7934268e-14
4.1597414e-17
7.7906612e-14
2.7656862e-17
7.7889762e-14
1.6849509e-17
7.7881176e-14
8.5864094e-18
7.7878799e-14
2.3771281e-18
7.7880985e-14
-2.1854185e-18
7.7886423e-14
-5.4378534e-18
7.7894081e-14
-7.6573803e-18
7.7903152e-14
-9.07119e-18
7.7913017e-14
-9.8645198e-18
7.7923204e-14
-1.0187506e-17
7.7933366e-14
-1.016104e-17
7.7943247e-14
-9.8817319e-18
7.7952674e-14
-9.4261284e-18
7.7961528e-14
-8.8542669e-18
7.7969741e-14
-8.2126849e-18
7.7977278e-14
-7.5369295e-18
7.7984131e-14
-6.8536735e-18
7.7990314e-14
-6.1824607e-18
7.7995851e-14
-5.5371696e-18
7.8000778e-14
-4.9272048e-18
7.8005137e-14
-4.3584915e-18
7.8008971e-14
-3.8342697e-18
7.8012327e-14
-3.3557566e-18
7.8015249e-14
-2.9226605e-18
7.8017783e-14
-2.5336127e-18
7.8019969e-14
-2.1864863e-18
7.8021848e-14
-1.8786708e-18
7.8023455e-14
-1.6072585e-18
7.8024824e-14
-1.3692143e-18
7.8025986e-14
-1.1614739e-18
7.8026967e-14
-9.810448e-19
7.8027792e-14
-8.2504838e-19
7.8028482e-14
-6.9077789e-19
7.8029058e-14
-5.7570421e-19
7.8029535e-14
-4.7750901e-19
7.8029929e-14
-3.9406863e-19
7.8030253e-14
-3.2347318e-19
7.8030517e-14
-2.6399835e-19
7.8030731e-14
-2.1411748e-19
7.8030903e-14
-1.7246741e-19
7.8031041e-14
-1.3785778e-19
7.803115e-14
-1.0923484e-19
7.8031236e-14
-8.5690335e-20
7.8031302e-14
-6.6425535e-20
7.8031353e-14
-5.0760967e-20
7.8031391e-14
-3.8101959e-20
7.8031419e-14
-2.7949611e-20
7.8031439e-14
-1.9868585e-20
7.8031453e-14
-1.3499275e-20
7.8031461e-14
-8.5281555e-21
7.8031466e-14
-4.7009015e-21
7.8031468e-14
-1.7953605e-21
7.8031467e-14
3.6472417e-22
7.8031466e-14
1.9341645e-21
7.8031463e-14
3.0323865e-21
7.8031459e-14
3.7654176e-21
7.8031455e-14
4.2120759e-21
7.803145e-14
4.4436423e-21
7.8031446e-14
4.5104798e-21
7.8031442e-14
4.4595466e-21
7.8031437e-14
4.3216855e-21
7.8031433e-14
4.127135e-21
7.8031429e-14
3.8936695e-21
7.8031426e-14
3.6402532e-21
7.8031423e-14
3.3761607e-21
7.803142e-14
3.112914e-21
7.8031417e-14
2.8544611e-21
7.8031414e-14
2.6075245e-21
7.8031412e-14
2.3728796e-21
7.803141e-14
2.1542344e-21
7.8031408e-14
1.9506183e-21
7.8031406e-14
1.7639022e-21
7.8031405e-14
1.5922834e-21
7.8031403e-14
1.4365509e-21
7.8031402e-14
1.2946366e-21
7.8031401e-14
1.1667152e-21
7.80314e-14
1.050781e-21
7.8031399e-14
9.4667364e-22
7.8031399e-14
8.5262701e-22
7.8031398e-14
7.6830177e-22
7.8031397e-14
6.9225181e-22
7.8031397e-14
6.2403829e-22
7.8031396e-14
5.6255578e-22
7.8031396e-14
5.0730581e-22
7.8031395e-14
4.5751298e-22
7.8031395e-14
4.1262792e-22
7.8031395e-14
3.7217942e-22
7.8031394e-14
3.3556837e-22
7.8031394e-14
3.0259032e-22
7.8031394e-14
2.7259636e-22
7.8031394e-14
2.4561128e-22
7.8031393e-14
2.2093327e-22
7.8031393e-14
1.9877951e-22
7.8031393e-14
1.7839843e-22
7.8031393e-14
1.6016436e-22
7.8031393e-14
1.4327918e-22
7.8031393e-14
1.2824235e-22
7.8031393e-14
1.1421944e-22
7.8031393e-14
1.0180415e-22
7.8031393e-14
9.0138681e-23
7.8031393e-14
7.9878148e-23
7.8031393e-14
7.0161297e-23
7.8031393e-14
6.167662e-23
7.8031393e-14
5.3576027e-23
7.8031392e-14
4.6552384e-23
7.8031392e-14
3.9794617e-23
7.8031392e-14
3.3969848e-23
7.8031392e-14
2.8329858e-23
7.8031392e-14
2.3485349e-23
7.8031392e-14
1.8776047e-23
7.8031392e-14
1.4727766e-23
7.8031392e-14
1.0795753e-23
7.8031392e-14
7.3895136e-24
7.8031392e-14
4.1094226e-24
7.8031392e-14
1.2170686e-24
7.8031392e-14
-1.514073e-24
7.8031392e-14
-3.9998186e-24
7.8031392e-14
-6.2631644e-24
7.8031392e-14
-8.4289023e-24
7.8031392e-14
-1.0288769e-23
7.8031392e-14
-1.220677e-23
7.8031392e-14
-1.3712153e-23
7.8031392e-14
-1.5438896e-23
7.8031392e-14
-1.662808e-23
7.8031392e-14
-1.8208281e-23
7.8031392e-14
-1.9106624e-23
7.8031392e-14
-2.0576086e-23
7.8031392e-14
-2.1203673e-23
7.8031392e-14
-2.2587559e-23
7.8031392e-14
-2.2956278e-23
7.8031392e-14
-2.4275677e-23
7.8031392e-14
-2.4392924e-23
7.8031392e-14
-2.5662266e-23
7.8031392e-14
-2.5532498e-23
7.8031392e-14
-2.6761038e-23
7.8031392e-14
-2.6387863e-23
7.8031392e-14
-2.7583587e-23
7.8031392e-14
-2.6967627e-23
7.8031392e-14
-2.813465e-23
7.8031392e-14
-2.7277711e-23
7.8031392e-14
-2.8418841e-23
7.8031391e-14
-2.7323967e-23
7.8031391e-14
-2.8441161e-23
7.8031391e-14
-2.7111308e-23
7.8031391e-14
-2.8205473e-23
7.8031391e-14
-2.6647159e-23
7.8031391e-14
-2.7718347e-23
7.8031391e-14
-2.5937338e-23
7.8031391e-14
-2.6986227e-23
7.8031391e-14
-2.4992673e-23
7.8031391e-14
-2.6019867e-23
7.8031391e-14
-2.3824506e-23
7.8031391e-14
-2.4829366e-23
7.8031391e-14
-2.2446188e-23
7.8031391e-14
-2.3428801e-23
7.8031391e-14
-2.0873185e-23
7.8031391e-14
-2.183444e-23
7.8031391e-14
-1.9122924e-23
7.8031391e-14
-2.0062108e-23
7.8031391e-14
-1.7214828e-23
7.8031391e-14
-1.8133032e-23
7.8031391e-14
-1.5168872e-23
7.8031391e-14
-1.6066179e-23
7.8031391e-14
-1.3007304e-23
7.8031391e-14
-1.3883633e-23
7.803139e-14
-1.0752338e-23
7.803139e-14
-1.160833e-23
7.803139e-14
-8.4270604e-24
7.803139e-14
-9.2631595e-24
7.803139e-14
-6.055117e-24
7.803139e-14
-6.8708823e-24
7.803139e-14
-3.6603155e-24
7.803139e-14
-4.4563333e-24
7.803139e-14
-1.2661893e-24
7.803139e-14
-2.0430774e-24
7.803139e-14
1.1043383e-24
7.803139e-14
3.4604199e-25
7.803139e-14
3.4278381e-24
7.803139e-14
2.6888163e-24
7.803139e-14
5.6831133e-24
7.803139e-14
4.9617587e-24
7.803139e-14
7.8496462e-24
7.803139e-14
7.1448497e-24
7.8031391e-14
9.9067948e-24
7.8031391e-14
9.2182894e-24
7.8031391e-14
1.1836925e-23
7.8031391e-14
1.1163522e-23
7.8031391e-14
1.3622221e-23
7.8031391e-14
1.2963513e-23
7.8031391e-14
1.5248608e-23
7.8031391e-14
1.4602242e-23
7.8031391e-14
1.6701914e-23
7.8031391e-14
1.6066684e-23
7.8031391e-14
1.7971376e-23
7.8031391e-14
1.7345041e-23
7.8031391e-14
1.904595e-23
7.8031391e-14
1.8428371e-23
7.8031391e-14
1.9919552e-23
7.8031391e-14
1.9307697e-23
7.8031391e-14
2.0585849e-23
7.8031391e-14
1.9978061e-23
7.8031391e-14
2.1042168e-23
7.8031391e-14
2.0437313e-23
7.8031391e-14
2.1287308e-23
7.8031391e-14
2.0682843e-23
7.8031391e-14
2.1322725e-23
7.8031391e-14
2.0717967e-23
7.8031392e-14
2.1151997e-23
7.8031392e-14
2.0544331e-23
7.8031392e-14
2.0779191e-23
7.8031392e-14
2.0168723e-23
7.8031392e-14
2.0214163e-23
7.8031392e-14
1.9598107e-23
7.8031392e-14
1.9463367e-23
7.8031392e-14
1.8841779e-23
7.8031392e-14
1.8540056e-23
7.8031392e-14
1.7912491e-23
7.8031392e-14
1.7455482e-23
7.8031392e-14
1.6820749e-23
7.8031392e-14
1.6223986e-23
7.8031392e-14
1.558298e-23
7.8031392e-14
1.4862133e-23
7.8031392e-14
1.4213606e-23
7.8031392e-14
1.3384123e-23
7.8031392e-14
1.2728538e-23
7.8031392e-14
1.1807743e-23
7.8031392e-14
1.1147058e-23
7.8031392e-14
1.0150909e-23
7.8031392e-14
9.4841487e-24
7.8031392e-14
8.4303048e-24
7.8031392e-14
7.7597009e-24
7.8031392e-14
6.6663163e-24
7.8031392e-14
5.991194e-24
7.8031392e-14
4.8736442e-24
7.8031392e-14
4.1963171e-24
7.8031392e-14
3.0720358e-24
7.8031392e-14
2.3932061e-24
7.8031392e-14
1.2776924e-24
7.8031392e-14
5.9817057e-25
7.8031392e-14
-4.9251141e-25
7.8031392e-14
-1.1717931e-24
7.8031392e-14
-2.2229859e-24
7.8031392e-14
-2.901395e-24
7.8031392e-14
-3.8997216e-24
7.8031392e-14
-4.5758071e-24
7.8031392e-14
-5.5085145e-24
7.8031392e-14
-6.1825144e-24
7.8031392e-14
-7.0374465e-24
7.8031392e-14
-7.7086318e-24
7.8031392e-14
-8.4741808e-24
7.8031392e-14
-9.1444458e-24
7.8031392e-14
-9.811251e-24
7.8031392e-14
-1.0479347e-23
7.8031392e-14
-1.1038499e-23
7.8031392e-14
-1.1704919e-23
7.8031392e-14
-1.214873e-23
7.8031392e-14
-1.2814266e-23
7.8031392e-14
-1.313544e-23
7.8031392e-14
-1.3800229e-23
7.8031392e-14
-1.3992052e-23
7.8031392e-14
-1.4657087e-23
7.8031392e-14
-1.4713476e-23
7.8031392e-14
-1.5378877e-23
7.8031392e-14
-1.5295631e-23
7.8031392e-14
-1.59595e-23
7.8031392e-14
-1.5732026e-23
7.8031392e-14
-1.6394706e-23
7.8031392e-14
-1.6018474e-23
7.8031392e-14
-1.6677698e-23
7.8031392e-14
-1.6148367e-23
7.8031392e-14
-1.6801536e-23
7.8031392e-14
-1.6114662e-23
7.8031392e-14
-1.6757102e-23
7.8031392e-14
-1.5909167e-23
7.8031392e-14
-1.653376e-23
7.8031392e-14
-1.5518348e-23
7.8031392e-14
-1.6118526e-23
7.8031392e-14
-1.4929438e-23
7.8031391e-14
-1.5493009e-23
7.8031391e-14
-1.4123222e-23
7.8031391e-14
-1.4638227e-23
7.8031391e-14
-1.3081099e-23
7.8031391e-14
-1.3533069e-23
7.8031391e-14
-1.1778884e-23
7.8031391e-14
-1.2151786e-23
7.8031391e-14
-1.0195015e-23
7.8031391e-14
-1.0471363e-23
7.8031391e-14
-8.3052515e-24
7.8031391e-14
-8.4694212e-24
7.8031391e-14
-6.0857256e-24
7.8031391e-14
-6.1210168e-24
7.8031391e-14
-3.5180197e-24
7.8031391e-14
-3.4091095e-24
7.8031391e-14
-5.8652645e-25
7.8031391e-14
-3.235677e-25
7.8031391e-14
2.7108253e-24
7.8031391e-14
3.1278096e-24
7.8031391e-14
6.3515768e-24
7.8031391e-14
6.9048607e-24
7.8031391e-14
1.0270499e-23
7.8031391e-14
1.0910485e-23
7.8031391e-14
1.4334262e-23
7.8031391e-14
1.4965207e-23
7.8031391e-14
1.830413e-23
7.8031391e-14
1.8766558e-23
7.8031391e-14
2.1805063e-23
7.8031391e-14
2.1850293e-23
7.8031391e-14
2.4279179e-23
7.8031391e-14
2.3554482e-23
7.8031391e-14
2.4946071e-23
7.8031391e-14
2.2972854e-23
7.8031391e-14
2.2766564e-23
7.8031391e-14
1.8918811e-23
7.8031391e-14
1.639893e-23
7.8031391e-14
9.8919695e-24
7.8031391e-14
4.1763131e-24
7.8031391e-14
-5.9465758e-24
7.8031391e-14
-1.5906441e-23
7.8031391e-14
-3.075902e-23
7.8031391e-14
-4.6146983e-23
7.8031391e-14
-6.6945228e-23
7.8031391e-14
-8.899823e-23
7.8031391e-14
-1.1693752e-22
7.8031391e-14
-1.4676789e-22
7.8031391e-14
-1.8279771e-22
7.8031392e-14
-2.2109662e-22
7.8031392e-14
-2.6554253e-22
7.8031392e-14
-3.1213025e-22
7.8031393e-14
-3.6415638e-22
7.8031393e-14
-4.1734433e-22
7.8031394e-14
-4.7421515e-22
7.8031394e-14
-5.2997221e-22
7.8031395e-14
-5.861135e-22
7.8031396e-14
-6.3702505e-22
7.8031396e-14
-6.8287246e-22
7.8031397e-14
-7.1688105e-22
7.8031398e-14
-7.375301e-22
7.8031399e-14
-7.3648694e-22
7.8031399e-14
-7.1015245e-22
7.80314e-14
-6.4821489e-22
7.8031401e-14
-5.4460655e-22
7.8031401e-14
-3.8662028e-22
7.8031401e-14
-1.6541276e-22
7.8031401e-14
1.3443965e-22
7.8031401e-14
5.246597e-22
7.80314e-14
1.0234508e-21
7.8031398e-14
1.6451242e-21
7.8031396e-14
2.4102195e-21
7.8031392e-14
3.3346807e-21
7.8031388e-14
4.4400824e-21
7.8031382e-14
5.7420532e-21
7.8031375e-14
7.2606384e-21
7.8031366e-14
9.0079232e-21
7.8031355e-14
1.0998403e-20
7.8031342e-14
1.3235915e-20
7.8031326e-14
1.5723871e-20
7.8031307e-14
1.8452791e-20
7.8031286e-14
2.1412014e-20
7.8031262e-14
2.4581249e-20
7.8031234e-14
2.794448e-20
7.8031202e-14
3.1516464e-20
7.8031167e-14
3.5414606e-20
7.8031127e-14
3.9893694e-20
7.8031082e-14
4.523768e-20
7.8031029e-14
5.3143367e-20
7.5642143e-20
1.0571072e-12
2.4644577e-13
9.5277297e-13
3.3459128e-13
8.188998e-13
2.8229561e-13
6.9896438e-13
2.1545456e-13
6.0156846e-13
1.5979591e-13
5.2506501e-13
1.1825299e-13
4.654842e-13
8.8492916e-14
4.1893821e-13
6.7304024e-14
3.8227967e-13
5.2050973e-14
3.5313216e-13
4.0870915e-14
3.2974351e-13
3.2508567e-14
3.1082528e-13
2.6128337e-14
2.9542256e-13
2.1171821e-14
2.8281825e-13
1.7260824e-14
2.7246552e-13
1.4134352e-14
2.6394085e-13
1.1608413e-14
2.5691135e-13
9.5504096e-15
2.5111186e-13
7.8626926e-15
2.4632868e-13
6.4718592e-15
2.4238791e-13
5.3216747e-15
2.3914682e-13
4.3683084e-15
2.3648754e-13
3.5770695e-15
2.3431217e-13
2.9201286e-15
2.3253913e-13
2.3749005e-15
2.3110019e-13
1.9228754e-15
2.2993826e-13
1.54876e-15
2.2900547e-13
1.2398357e-15
2.2826167e-13
9.8547076e-16
2.2767327e-13
7.7674409e-16
2.2721213e-13
6.0614969e-16
2.2685475e-13
4.6736168e-16
2.2658155e-13
3.5504448e-16
2.2637623e-13
2.6469771e-16
2.262253e-13
1.9252788e-16
2.2611761e-13
1.3534132e-16
2.2604401e-13
9.0454058e-17
2.2599698e-13
5.5615538e-17
2.2597041e-13
2.894363e-17
2.2595936e-13
8.8691755e-18
2.2595983e-13
-5.911517e-18
2.2596865e-13
-1.6477373e-17
2.259833e-13
-2.3717465e-17
2.260018e-13
-2.8360924e-17
2.2602261e-13
-3.100256e-17
2.2604458e-13
-3.2124747e-17
2.2606681e-13
-3.2116109e-17
2.2608867e-13
-3.12874e-17
2.261097e-13
-2.9884995e-17
2.2612959e-13
-2.8102287e-17
2.2614815e-13
-2.608931e-17
2.2616525e-13
-2.3960803e-17
2.2618087e-13
-2.1802975e-17
2.2619502e-13
-1.9679124e-17
2.2620772e-13
-1.7634313e-17
2.2621906e-13
-1.5699212e-17
2.2622912e-13
-1.3893273e-17
2.2623799e-13
-1.2227298e-17
2.2624578e-13
-1.0705546e-17
2.2625257e-13
-9.3274126e-18
2.2625847e-13
-8.0887822e-18
2.2626358e-13
-6.9830939e-18
2.2626797e-13
-6.0021848e-18
2.2627174e-13
-5.1369324e-18
2.2627495e-13
-4.3777581e-18
2.2627769e-13
-3.7149904e-18
2.2628e-13
-3.1391452e-18
2.2628195e-13
-2.6411099e-18
2.2628359e-13
-2.2122825e-18
2.2628496e-13
-1.8446442e-18
2.2628609e-13
-1.5308121e-18
2.2628703e-13
-1.2640467e-18
2.2628781e-13
-1.0382555e-18
2.2628844e-13
-8.4796374e-19
2.2628896e-13
-6.8829355e-19
2.2628937e-13
-5.5491669e-19
2.2628971e-13
-4.4402331e-19
2.2628998e-13
-3.5226887e-19
2.2629019e-13
-2.7674079e-19
2.2629035e-13
-2.1490614e-19
2.2629048e-13
-1.6458092e-19
2.2629057e-13
-1.23882e-19
2.2629064e-13
-9.1201131e-20
2.262907e-13
-6.5162668e-20
2.2629073e-13
-4.4603026e-20
2.2629076e-13
-2.8534539e-20
2.2629077e-13
-1.6130136e-20
2.2629078e-13
-6.6930509e-21
2.2629078e-13
3.5385562e-22
2.2629078e-13
5.4931542e-21
2.2629077e-13
9.1196763e-21
2.2629076e-13
1.1561052e-20
2.2629076e-13
1.308149e-20
2.2629075e-13
1.389852e-20
2.2629074e-13
1.4184472e-20
2.2629073e-13
1.4080073e-20
2.2629072e-13
1.3694274e-20
2.2629071e-13
1.3115288e-20
2.262907e-13
1.2409277e-20
2.2629069e-13
1.1629324e-20
2.2629068e-13
1.0813411e-20
2.2629068e-13
9.9917067e-21
2.2629067e-13
9.1841708e-21
2.2629066e-13
8.4064716e-21
2.2629066e-13
7.6674623e-21
2.2629065e-13
6.9739805e-21
2.2629065e-13
6.3283716e-21
2.2629065e-13
5.732367e-21
2.2629064e-13
5.1847712e-21
2.2629064e-13
4.6845839e-21
2.2629064e-13
4.228928e-21
2.2629063e-13
3.815524e-21
2.2629063e-13
3.4409178e-21
2.2629063e-13
3.1024043e-21
2.2629063e-13
2.7965696e-21
2.2629063e-13
2.5207414e-21
2.2629062e-13
2.2718561e-21
2.2629062e-13
2.0474919e-21
2.2629062e-13
1.8450607e-21
2.2629062e-13
1.662469e-21
2.2629062e-13
1.4976198e-21
2.2629062e-13
1.3487486e-21
2.2629062e-13
1.2142123e-21
2.2629062e-13
1.0925372e-21
2.2629062e-13
9.8247468e-22
2.2629062e-13
8.8279046e-22
2.2629062e-13
7.9256287e-22
2.2629062e-13
7.1074612e-22
2.2629061e-13
6.3668185e-22
2.2629061e-13
5.6947145e-22
2.2629061e-13
5.0866182e-22
2.2629061e-13
4.534671e-22
2.2629061e-13
4.0359039e-22
2.2629061e-13
3.5833437e-22
2.2629061e-13
3.1752268e-22
2.2629061e-13
2.8052683e-22
2.2629061e-13
2.4725537e-22
2.2629061e-13
2.1714265e-22
2.2629061e-13
1.9015595e-22
2.2629061e-13
1.6578755e-22
2.2629061e-13
1.4403975e-22
2.2629061e-13
1.2446244e-22
2.2629061e-13
1.0707328e-22
2.2629061e-13
9.148774e-23
2.2629061e-13
7.7716251e-23
2.2629061e-13
6.5444618e-23
2.2629061e-13
5.4660974e-23
2.2629061e-13
4.5129903e-23
2.2629061e-13
3.6802862e-23
2.2629061e-13
2.9530189e-23
2.2629061e-13
2.3207618e-23
2.2629061e-13
1.7785013e-23
2.2629061e-13
1.308802e-23
2.2629061e-13
9.1743683e-24
2.2629061e-13
5.7838077e-24
2.2629061e-13
3.0924973e-24
2.2629061e-13
7.4197742e-25
2.2629061e-13
-9.6233752e-25
2.2629061e-13
-2.4958371e-24
2.2629061e-13
-3.4113146e-24
2.2629061e-13
-4.3085201e-24
2.2629061e-13
-4.5973144e-24
2.2629061e-13
-5.0130909e-24
2.2629061e-13
-4.8063901e-24
2.2629061e-13
-4.8642736e-24
2.2629061e-13
-4.2731926e-24
2.2629061e-13
-4.0776289e-24
2.2629061e-13
-3.192022e-24
2.2629061e-13
-2.8278e-24
2.2629061e-13
-1.7220789e-24
2.2629061e-13
-1.2608654e-24
2.2629061e-13
1.2079154e-27
2.2629061e-13
5.0116895e-25
2.2629061e-13
1.8674449e-24
2.2629061e-13
2.3557641e-24
2.2629061e-13
3.7794158e-24
2.2629061e-13
4.2140086e-24
2.2629061e-13
5.6574706e-24
2.2629061e-13
6.0038449e-24
2.2629061e-13
7.4321502e-24
2.2629061e-13
7.6588598e-24
2.2629061e-13
9.0420473e-24
2.2629061e-13
9.1254378e-24
2.2629061e-13
1.0438733e-23
2.2629061e-13
1.0358978e-23
2.2629061e-13
1.1578426e-23
2.2629061e-13
1.13191e-23
2.2629061e-13
1.242759e-23
2.2629061e-13
1.1978132e-23
2.2629061e-13
1.2960166e-23
2.2629061e-13
1.2312773e-23
2.2629061e-13
1.3155591e-23
2.2629061e-13
1.231048e-23
2.2629061e-13
1.3007726e-23
2.2629061e-13
1.1963648e-23
2.2629061e-13
1.2510496e-23
2.2629061e-13
1.1275298e-23
2.2629061e-13
1.1671822e-23
2.2629061e-13
1.0253919e-23
2.2629061e-13
1.0501501e-23
2.262906e-13
8.9172179e-24
2.262906e-13
9.0223754e-24
2.262906e-13
7.2879359e-24
2.262906e-13
7.2606473e-24
2.262906e-13
5.3965502e-24
2.262906e-13
5.2474354e-24
2.262906e-13
3.2767573e-24
2.262906e-13
3.0215355e-24
2.262906e-13
9.6891017e-25
2.262906e-13
6.226165e-25
2.262906e-13
-1.4849742e-24
2.262906e-13
-1.9049197e-24
2.262906e-13
-4.0392141e-24
2.262906e-13
-4.5126211e-24
2.262906e-13
-6.6477985e-24
2.262906e-13
-7.1565907e-24
2.262906e-13
-9.2630452e-24
2.262906e-13
-9.7889734e-24
2.262906e-13
-1.1840611e-23
2.2629061e-13
-1.2363959e-23
2.2629061e-13
-1.4334746e-23
2.2629061e-13
-1.4837609e-23
2.2629061e-13
-1.6705555e-23
2.2629061e-13
-1.7170049e-23
2.2629061e-13
-1.8912134e-23
2.2629061e-13
-1.932444e-23
2.2629061e-13
-2.0921688e-23
2.2629061e-13
-2.1267652e-23
2.2629061e-13
-2.2703888e-23
2.2629061e-13
-2.2972732e-23
2.2629061e-13
-2.4234916e-23
2.2629061e-13
-2.4415664e-23
2.2629061e-13
-2.5495035e-23
2.2629061e-13
-2.5582117e-23
2.2629061e-13
-2.647088e-23
2.2629061e-13
-2.6459824e-23
2.2629061e-13
-2.715513e-23
2.2629061e-13
-2.7043147e-23
2.2629061e-13
-2.7546257e-23
2.2629061e-13
-2.7335807e-23
2.2629061e-13
-2.7648647e-23
2.2629061e-13
-2.7340684e-23
2.2629061e-13
-2.7472006e-23
2.2629061e-13
-2.7072846e-23
2.2629061e-13
-2.7032834e-23
2.2629061e-13
-2.654818e-23
2.2629061e-13
-2.634765e-23
2.2629061e-13
-2.5788699e-23
2.2629061e-13
-2.5443464e-23
2.2629061e-13
-2.4819896e-23
2.2629061e-13
-2.434516e-23
2.2629061e-13
-2.366754e-23
2.2629061e-13
-2.3083746e-23
2.2629061e-13
-2.236608e-23
2.2629061e-13
-2.1690522e-23
2.2629061e-13
-2.0944139e-23
2.2629061e-13
-2.0195413e-23
2.2629061e-13
-1.9434188e-23
2.2629061e-13
-1.8632868e-23
2.2629061e-13
-1.7867965e-23
2.2629061e-13
-1.70308e-23
2.2629061e-13
-1.6272027e-23
2.2629061e-13
-1.5417613e-23
2.2629061e-13
-1.4676208e-23
2.2629061e-13
-1.3819422e-23
2.2629061e-13
-1.3100357e-23
2.2629061e-13
-1.2253509e-23
2.2629061e-13
-1.1565645e-23
2.2629061e-13
-1.0742078e-23
2.2629061e-13
-1.0085484e-23
2.2629061e-13
-9.292909e-24
2.2629061e-13
-8.6700736e-24
2.2629061e-13
-7.9148032e-24
2.2629061e-13
-7.3256641e-24
2.2629061e-13
-6.6118944e-24
2.2629061e-13
-6.0505883e-24
2.2629061e-13
-5.3798943e-24
2.2629061e-13
-4.843322e-24
2.2629061e-13
-4.2145486e-24
2.2629061e-13
-3.6942599e-24
2.2629061e-13
-3.1065195e-24
2.2629061e-13
-2.5944016e-24
2.2629061e-13
-2.0440098e-24
2.2629061e-13
-1.5304993e-24
2.2629061e-13
-1.010096e-24
2.2629061e-13
-4.8823341e-25
2.2629061e-13
4.9922244e-27
2.2629061e-13
5.4723932e-25
2.2629061e-13
1.0200609e-24
2.2629061e-13
1.5916308e-24
2.2629061e-13
2.0478488e-24
2.2629061e-13
2.6565571e-24
2.2629061e-13
3.1019926e-24
2.2629061e-13
3.7564039e-24
2.2629061e-13
4.195462e-24
2.2629061e-13
4.900851e-24
2.2629061e-13
5.3375889e-24
2.2629061e-13
6.1003001e-24
2.2629061e-13
6.53646e-24
2.2629061e-13
7.3630752e-24
2.2629061e-13
7.8024303e-24
2.2629061e-13
8.6957473e-24
2.2629061e-13
9.1416445e-24
2.2629061e-13
1.0107212e-23
2.2629061e-13
1.0564524e-23
2.2629061e-13
1.1607348e-23
2.2629061e-13
1.2082206e-23
2.2629061e-13
1.3210047e-23
2.2629061e-13
1.3709719e-23
2.2629061e-13
1.493391e-23
2.2629061e-13
1.5472511e-23
2.2629061e-13
1.6803805e-23
2.2629061e-13
1.7399354e-23
2.2629061e-13
1.8859441e-23
2.2629061e-13
1.9535177e-23
2.2629061e-13
2.1148712e-23
2.2629061e-13
2.1936199e-23
2.2629061e-13
2.3735373e-23
2.2629061e-13
2.4675856e-23
2.2629061e-13
2.6701136e-23
2.2629061e-13
2.7839609e-23
2.2629061e-13
3.0137907e-23
2.2629061e-13
3.1525309e-23
2.2629061e-13
3.4143814e-23
2.2629061e-13
3.5837094e-23
2.2629061e-13
3.8821322e-23
2.2629061e-13
4.0864645e-23
2.2629061e-13
4.425045e-23
2.2629061e-13
4.6672432e-23
2.2629061e-13
5.0468039e-23
2.2629061e-13
5.3264643e-23
2.2629061e-13
5.7432619e-23
2.2629061e-13
6.0540958e-23
2.2629061e-13
6.4972719e-23
2.2629061e-13
6.8238881e-23
2.2629061e-13
7.2713173e-23
2.2629061e-13
7.5851697e-23
2.2629061e-13
7.9985939e-23
2.2629061e-13
8.2513608e-23
2.2629061e-13
8.5701282e-23
2.2629061e-13
8.6874573e-23
2.2629061e-13
8.819863e-23
2.2629061e-13
8.6925327e-23
2.2629061e-13
8.5078625e-23
2.2629061e-13
7.9823867e-23
2.2629061e-13
7.3016313e-23
2.2629061e-13
6.1721734e-23
2.2629061e-13
4.7598729e-23
2.2629061e-13
2.7616027e-23
2.2629061e-13
3.2239476e-24
2.2629061e-13
-2.8696909e-23
2.2629061e-13
-6.6894883e-23
2.2629061e-13
-1.1453129e-22
2.2629061e-13
-1.7051452e-22
2.2629061e-13
-2.3795996e-22
2.2629061e-13
-3.1584305e-22
2.2629061e-13
-4.0709324e-22
2.2629061e-13
-5.1057688e-22
2.2629061e-13
-6.2881734e-22
2.2629061e-13
-7.6029818e-22
2.2629061e-13
-9.0679166e-22
2.2629061e-13
-1.0659967e-21
2.2629061e-13
-1.2384535e-21
2.2629061e-13
-1.4204982e-21
2.2629061e-13
-1.610779e-21
2.2629062e-13
-1.8034975e-21
2.2629062e-13
-1.9945455e-21
2.2629062e-13
-2.1750053e-21
2.2629062e-13
-2.3369382e-21
2.2629062e-13
-2.4671085e-21
2.2629062e-13
-2.5524786e-21
2.2629063e-13
-2.5741449e-21
2.2629063e-13
-2.5125644e-21
2.2629063e-13
-2.3417376e-21
2.2629063e-13
-2.0342274e-21
2.2629063e-13
-1.5556042e-21
2.2629063e-13
-8.6938212e-22
2.2629063e-13
6.8258809e-23
2.2629063e-13
1.3034155e-21
2.2629063e-13
2.8894353e-21
2.2629062e-13
4.8814558e-21
2.2629062e-13
7.3409969e-21
2.2629061e-13
1.0329737e-20
2.262906e-13
1.3913569e-20
2.2629059e-13
1.8155219e-20
2.2629057e-13
2.3117503e-20
2.2629055e-13
2.8854436e-20
2.2629052e-13
3.5413428e-20
2.2629049e-13
4.2824738e-20
2.2629045e-13
5.1102511e-20
2.2629041e-13
6.0233247e-20
2.2629036e-13
7.0176879e-20
2.262903e-13
8.0858687e-20
2.2629023e-13
9.2176002e-20
2.2629015e-13
1.040081e-19
2.2629007e-13
1.1625717e-19
2.2628998e-13
1.2894634e-19
2.2628987e-13
1.4224522e-19
2.2628976e-13
1.5655282e-19
2.2628964e-13
1.7368018e-19
2.0322072e-19
1.0862299e-12
2.0188258e-13
1.0778375e-12
3.4298367e-13
1.0145513e-12
3.4558174e-13
9.2971766e-13
3.0028823e-13
8.4364683e-13
2.4586674e-13
7.6535189e-13
1.9654793e-13
6.9774354e-13
1.5610126e-13
6.4082923e-13
1.2421834e-13
5.9347234e-13
9.9407857e-14
5.5424313e-13
8.0100121e-14
5.2177343e-13
6.4978275e-14
4.9487596e-13
5.30258e-14
4.7256315e-13
4.3484631e-14
4.5402805e-13
3.5795926e-14
4.3861501e-13
2.954739e-14
4.2579092e-13
2.4432508e-14
4.1512054e-13
2.0220784e-14
4.0624669e-13
1.6736548e-14
3.9887451e-13
1.3844032e-14
3.9275936e-13
1.143683e-14
3.8769722e-13
9.4304441e-15
3.8351734e-13
7.7569485e-15
3.8007633e-13
6.361142e-15
3.772535e-13
5.1977323e-15
3.7494712e-13
4.2292534e-15
3.7307138e-13
3.4245025e-15
3.7155386e-13
2.7573507e-15
3.7033351e-13
2.205825e-15
3.6935886e-13
1.7513896e-15
3.6858664e-13
1.3783749e-15
3.6798048e-13
1.0735179e-15
3.6750994e-13
8.2558766e-16
3.6714956e-13
6.2507618e-16
3.6687815e-13
4.639407e-16
3.666781e-13
3.3538724e-16
3.6653487e-13
2.3368724e-16
3.6643647e-13
1.5402134e-16
3.6637307e-13
9.2345829e-17
3.6633666e-13
4.5278038e-17
3.6632075e-13
9.9977887e-18
3.6632011e-13
-1.5837361e-17
3.6633056e-13
-3.4165066e-17
3.6634878e-13
-4.6580919e-17
3.6637217e-13
-5.4392331e-17
3.6639871e-13
-5.866472e-17
3.6642685e-13
-6.026103e-17
3.6645544e-13
-5.9875468e-17
3.6648362e-13
-5.8062193e-17
3.6651078e-13
-5.525968e-17
3.665365e-13
-5.1811304e-17
3.6656052e-13
-4.7982688e-17
3.6658269e-13
-4.3976269e-17
3.6660296e-13
-3.9943464e-17
3.6662132e-13
-3.5994806e-17
3.6663783e-13
-3.2208338e-17
3.6665257e-13
-2.863653e-17
3.6666566e-13
-2.5311955e-17
3.666772e-13
-2.2251915e-17
3.6668734e-13
-1.9462191e-17
3.6669619e-13
-1.6940051e-17
3.6670388e-13
-1.4676659e-17
3.6671054e-13
-1.2658975e-17
3.6671627e-13
-1.0871244e-17
3.6672119e-13
-9.29614e-18
3.6672539e-13
-7.9156466e-18
3.6672896e-13
-6.7117023e-18
3.6673199e-13
-5.6666799e-18
3.6673454e-13
-4.7637147e-18
3.6673668e-13
-3.9869315e-18
3.6673847e-13
-3.3215758e-18
3.6673996e-13
-2.7540883e-18
3.667412e-13
-2.2721202e-18
3.6674221e-13
-1.8645223e-18
3.6674305e-13
-1.5212966e-18
3.6674372e-13
-1.2335421e-18
3.6674427e-13
-9.9337655e-19
3.6674471e-13
-7.9386449e-19
3.6674507e-13
-6.289303e-19
3.6674535e-13
-4.9328293e-19
3.6674556e-13
-3.8233171e-19
3.6674573e-13
-2.9211663e-19
3.6674586e-13
-2.1923228e-19
3.6674595e-13
-1.6076763e-19
3.6674602e-13
-1.1424056e-19
3.6674607e-13
-7.7548308e-20
3.6674611e-13
-4.8912867e-20
3.6674613e-13
-2.6841826e-20
3.6674614e-13
-1.0083955e-20
3.6674614e-13
2.4007674e-21
3.6674614e-13
1.1476592e-20
3.6674613e-13
1.7854186e-20
3.6674612e-13
2.2118526e-20
3.6674611e-13
2.4744745e-20
3.667461e-13
2.6119855e-20
3.6674609e-13
2.6553611e-20
3.6674608e-13
2.6295308e-20
3.6674606e-13
2.5540823e-20
3.6674605e-13
2.4445558e-20
3.6674604e-13
2.3128638e-20
3.6674603e-13
2.168287e-20
3.6674602e-13
2.0176896e-20
3.6674601e-13
1.8662863e-20
3.66746e-13
1.7177154e-20
3.6674599e-13
1.5746325e-20
3.6674599e-13
1.4386874e-20
3.6674598e-13
1.3109882e-20
3.6674597e-13
1.1920169e-20
3.6674597e-13
1.0819962e-20
3.6674596e-13
9.8076955e-21
3.6674596e-13
8.8809392e-21
3.6674595e-13
8.0350372e-21
3.6674595e-13
7.2654668e-21
3.6674595e-13
6.5664406e-21
3.6674594e-13
5.9328295e-21
3.6674594e-13
5.3588072e-21
3.6674594e-13
4.8394318e-21
3.6674594e-13
4.369387e-21
3.6674594e-13
3.9442895e-21
3.6674593e-13
3.5595528e-21
3.6674593e-13
3.2114743e-21
3.6674593e-13
2.8962338e-21
3.6674593e-13
2.6107967e-21
3.6674593e-13
2.3520523e-21
3.6674593e-13
2.1175568e-21
3.6674593e-13
1.9048091e-21
3.6674593e-13
1.7118604e-21
3.6674592e-13
1.5367093e-21
3.6674592e-13
1.3778031e-21
3.6674592e-13
1.2335438e-21
3.6674592e-13
1.1026863e-21
3.6674592e-13
9.8394762e-22
3.6674592e-13
8.7632167e-22
3.6674592e-13
7.7876984e-22
3.6674592e-13
6.9047233e-22
3.6674592e-13
6.1057601e-22
3.6674592e-13
5.3840764e-22
3.6674592e-13
4.7325675e-22
3.6674592e-13
4.1456717e-22
3.6674592e-13
3.6173958e-22
3.6674592e-13
3.1431326e-22
3.6674592e-13
2.7177157e-22
3.6674592e-13
2.3374104e-22
3.6674592e-13
1.9976687e-22
3.6674592e-13
1.6955205e-22
3.6674592e-13
1.4268479e-22
3.6674592e-13
1.1894248e-22
3.6674592e-13
9.7942459e-23
3.6674592e-13
7.9534349e-23
3.6674592e-13
6.3351577e-23
3.6674592e-13
4.931369e-23
3.6674592e-13
3.7057798e-23
3.6674592e-13
2.6576759e-23
3.6674592e-13
1.7500563e-23
3.6674592e-13
9.8952615e-24
3.6674592e-13
3.3703498e-24
3.6674592e-13
-1.9293607e-24
3.6674592e-13
-6.4225815e-24
3.6674592e-13
-9.8876329e-24
3.6674592e-13
-1.278278e-23
3.6674592e-13
-1.4802523e-23
3.6674592e-13
-1.6453439e-23
3.6674592e-13
-1.7348083e-23
3.6674592e-13
-1.8045758e-23
3.6674592e-13
-1.8074919e-23
3.6674592e-13
-1.8057883e-23
3.6674592e-13
-1.7434143e-23
3.6674592e-13
-1.6895327e-23
3.6674592e-13
-1.5790683e-23
3.6674592e-13
-1.488662e-23
3.6674592e-13
-1.3441743e-23
3.6674592e-13
-1.2301225e-23
3.6674592e-13
-1.0630272e-23
3.6674592e-13
-9.3569151e-24
3.6674592e-13
-7.554644e-24
3.6674592e-13
-6.2346035e-24
3.6674592e-13
-4.3772522e-24
3.6674592e-13
-3.0808468e-24
3.6674592e-13
-1.2329518e-24
3.6674592e-13
-1.7794131e-26
3.6674592e-13
1.7671703e-24
3.6674592e-13
2.8526838e-24
3.6674592e-13
4.5310723e-24
3.6674592e-13
5.4493098e-24
3.6674592e-13
6.983831e-24
3.6674592e-13
7.7016449e-24
3.6674592e-13
9.0622911e-24
3.6674592e-13
9.5571166e-24
3.6674591e-13
1.0722215e-23
3.6674591e-13
1.0974917e-23
3.6674591e-13
1.1925079e-23
3.6674591e-13
1.1925321e-23
3.6674591e-13
1.2650651e-23
3.6674591e-13
1.239319e-23
3.6674591e-13
1.2885244e-23
3.6674591e-13
1.2369606e-23
3.6674591e-13
1.2629628e-23
3.6674591e-13
1.1862908e-23
3.6674591e-13
1.1893902e-23
3.6674591e-13
1.088506e-23
3.6674591e-13
1.0697218e-23
3.6674591e-13
9.4635334e-24
3.6674591e-13
9.0702458e-24
3.6674591e-13
7.6334024e-24
3.6674591e-13
7.0516283e-24
3.6674591e-13
5.4337805e-24
3.6674591e-13
4.6863726e-24
3.6674591e-13
2.9162716e-24
3.6674591e-13
2.0257762e-24
3.6674591e-13
1.333377e-25
3.6674591e-13
-8.7330606e-25
3.6674591e-13
-2.8561795e-24
3.6674591e-13
-3.9499718e-24
3.6674591e-13
-5.9892941e-24
3.6674591e-13
-7.14304e-24
3.6674591e-13
-9.2054875e-24
3.6674591e-13
-1.0388449e-23
3.6674591e-13
-1.2441725e-23
3.6674591e-13
-1.3624977e-23
3.6674591e-13
-1.5636189e-23
3.6674591e-13
-1.6792101e-23
3.6674591e-13
-1.8730107e-23
3.6674591e-13
-1.9832817e-23
3.6674591e-13
-2.1668514e-23
3.6674591e-13
-2.2693727e-23
3.6674591e-13
-2.4401835e-23
3.6674591e-13
-2.5326242e-23
3.6674591e-13
-2.6884748e-23
3.6674591e-13
-2.7690923e-23
3.6674591e-13
-2.9080189e-23
3.6674592e-13