/*--------------------------------*- C++ -*----------------------------------*\
| =========                 |                                                 |
| \\      /  F ield         | OpenFOAM: The Open Source CFD Toolbox           |
|  \\    /   O peration     | Version:  2406                                  |
|   \\  /    A nd           | Website:  www.openfoam.com                      |
|    \\/     M anipulation  |                                                 |
\*---------------------------------------------------------------------------*/
FoamFile
{
    version     2.0;
    format      ascii;
    arch        "LSB;label=32;scalar=64";
    class       volVectorField;
    location    "330";
    object      U;
}
// * * * * * * * * * * * * * * * * * * * * * * * * * * * * * * * * * * * * * //

dimensions      [0 1 -1 0 0 0 0];

internalField   nonuniform List<vector> 
16000
(
(0.0031085878 0.00052209484 0)
(0.0026232926 0.00042625323 0)
(0.0018842773 0.00021742101 0)
(0.0013830262 0.00011618762 0)
(0.0010764992 6.6132823e-05 0)
(0.00087626518 3.8637138e-05 0)
(0.00073949198 2.352867e-05 0)
(0.00064292225 1.512273e-05 0)
(0.00057237598 1.0241252e-05 0)
(0.00051926589 7.257083e-06 0)
(0.0004783148 5.3356797e-06 0)
(0.00044615379 4.0356208e-06 0)
(0.00042054534 3.1163932e-06 0)
(0.0003999472 2.4423002e-06 0)
(0.00038325906 1.9335062e-06 0)
(0.00036967157 1.5408864e-06 0)
(0.00035857354 1.2328407e-06 0)
(0.00034949325 9.8817392e-07 0)
(0.00034205991 7.9212295e-07 0)
(0.00033597781 6.3405916e-07 0)
(0.0003310082 5.0611042e-07 0)
(0.00032695658 4.0230464e-07 0)
(0.00032366327 3.1801908e-07 0)
(0.00032099645 2.4961523e-07 0)
(0.00031884686 1.9418963e-07 0)
(0.00031712367 1.4939955e-07 0)
(0.00031575127 1.1333792e-07 0)
(0.00031466665 8.444177e-08 0)
(0.00031381729 6.1423636e-08 0)
(0.00031315948 4.321932e-08 0)
(0.0003126569 2.8947246e-08 0)
(0.00031227941 1.7876434e-08 0)
(0.00031200206 9.4007741e-09 0)
(0.0003118043 3.0182002e-09 0)
(0.00031166923 -1.6864655e-09 0)
(0.00031158302 -5.0556608e-09 0)
(0.00031153443 -7.3709505e-09 0)
(0.00031151434 -8.8629194e-09 0)
(0.00031151544 -9.7195634e-09 0)
(0.00031153186 -1.0093313e-08 0)
(0.00031155898 -1.010703e-08 0)
(0.00031159316 -9.8590153e-09 0)
(0.0003116316 -9.4272954e-09 0)
(0.00031167212 -8.8731865e-09 0)
(0.00031171314 -8.2443415e-09 0)
(0.00031175345 -7.5772614e-09 0)
(0.00031179223 -6.8994414e-09 0)
(0.0003118289 -6.2311155e-09 0)
(0.0003118631 -5.5867485e-09 0)
(0.00031189463 -4.9762256e-09 0)
(0.00031192342 -4.4058728e-09 0)
(0.00031194948 -3.8792498e-09 0)
(0.0003119729 -3.3978355e-09 0)
(0.0003119938 -2.9615395e-09 0)
(0.00031201233 -2.5691542e-09 0)
(0.00031202868 -2.2186707e-09 0)
(0.00031204302 -1.9075701e-09 0)
(0.00031205554 -1.6330066e-09 0)
(0.00031206641 -1.3919907e-09 0)
(0.00031207581 -1.1814838e-09 0)
(0.00031208391 -9.9851056e-10 0)
(0.00031209085 -8.4019608e-10 0)
(0.00031209677 -7.038339e-10 0)
(0.0003121018 -5.8688639e-10 0)
(0.00031210607 -4.8702663e-10 0)
(0.00031210966 -4.0211641e-10 0)
(0.00031211267 -3.3023341e-10 0)
(0.00031211518 -2.6963661e-10 0)
(0.00031211727 -2.1878609e-10 0)
(0.000312119 -1.7630197e-10 0)
(0.00031212043 -1.4098154e-10 0)
(0.00031212159 -1.1175551e-10 0)
(0.00031212254 -8.7704975e-11 0)
(0.00031212331 -6.8017347e-11 0)
(0.00031212392 -5.2004531e-11 0)
(0.00031212441 -3.9059805e-11 0)
(0.00031212479 -2.8677682e-11 0)
(0.00031212509 -2.0412493e-11 0)
(0.00031212533 -1.3899939e-11 0)
(0.0003121255 -8.8176967e-12 0)
(0.00031212563 -4.9084158e-12 0)
(0.00031212572 -1.9424725e-12 0)
(0.00031212579 2.5800068e-13 0)
(0.00031212583 1.8541853e-12 0)
(0.00031212586 2.9659363e-12 0)
(0.00031212587 3.7047553e-12 0)
(0.00031212587 4.1489361e-12 0)
(0.00031212587 4.3745115e-12 0)
(0.00031212586 4.430567e-12 0)
(0.00031212584 4.3682483e-12 0)
(0.00031212583 4.2165383e-12 0)
(0.00031212581 4.0094318e-12 0)
(0.00031212579 3.7624047e-12 0)
(0.00031212577 3.4978502e-12 0)
(0.00031212576 3.2224329e-12 0)
(0.00031212574 2.9508644e-12 0)
(0.00031212573 2.6842669e-12 0)
(0.00031212571 2.4323827e-12 0)
(0.0003121257 2.1930267e-12 0)
(0.00031212568 1.9728084e-12 0)
(0.00031212567 1.76772e-12 0)
(0.00031212566 1.5824607e-12 0)
(0.00031212565 1.4121594e-12 0)
(0.00031212564 1.2603889e-12 0)
(0.00031212564 1.1220106e-12 0)
(0.00031212563 9.9995913e-13 0)
(0.00031212562 8.8918332e-13 0)
(0.00031212562 7.9226824e-13 0)
(0.00031212561 7.0444045e-13 0)
(0.00031212561 6.281011e-13 0)
(0.0003121256 5.5884094e-13 0)
(0.0003121256 4.989585e-13 0)
(0.0003121256 4.4443572e-13 0)
(0.00031212559 3.9751079e-13 0)
(0.00031212559 3.5454156e-13 0)
(0.00031212559 3.1771026e-13 0)
(0.00031212559 2.8372657e-13 0)
(0.00031212558 2.5471986e-13 0)
(0.00031212558 2.2770818e-13 0)
(0.00031212558 2.0475787e-13 0)
(0.00031212558 1.8316387e-13 0)
(0.00031212558 1.6491747e-13 0)
(0.00031212558 1.4755233e-13 0)
(0.00031212558 1.3298495e-13 0)
(0.00031212558 1.1894719e-13 0)
(0.00031212557 1.0728287e-13 0)
(0.00031212557 9.5888606e-14 0)
(0.00031212557 8.6538224e-14 0)
(0.00031212557 7.7268087e-14 0)
(0.00031212557 6.9786425e-14 0)
(0.00031212557 6.2238156e-14 0)
(0.00031212557 5.6279556e-14 0)
(0.00031212557 5.0139543e-14 0)
(0.00031212557 4.543778e-14 0)
(0.00031212557 4.045744e-14 0)
(0.00031212557 3.6799614e-14 0)
(0.00031212557 3.2776348e-14 0)
(0.00031212557 2.9992579e-14 0)
(0.00031212557 2.6763436e-14 0)
(0.00031212557 2.4714493e-14 0)
(0.00031212557 2.2137984e-14 0)
(0.00031212557 2.0711782e-14 0)
(0.00031212557 1.8671527e-14 0)
(0.00031212557 1.7772588e-14 0)
(0.00031212557 1.616986e-14 0)
(0.00031212557 1.5718766e-14 0)
(0.00031212557 1.4466003e-14 0)
(0.00031212557 1.4398374e-14 0)
(0.00031212557 1.3421216e-14 0)
(0.00031212557 1.3681018e-14 0)
(0.00031212557 1.2913252e-14 0)
(0.00031212557 1.3453001e-14 0)
(0.00031212557 1.2840265e-14 0)
(0.00031212557 1.3621851e-14 0)
(0.00031212557 1.3110203e-14 0)
(0.00031212557 1.4099631e-14 0)
(0.00031212557 1.3648083e-14 0)
(0.00031212557 1.4815425e-14 0)
(0.00031212557 1.4380638e-14 0)
(0.00031212557 1.570431e-14 0)
(0.00031212557 1.5250244e-14 0)
(0.00031212557 1.6703766e-14 0)
(0.00031212557 1.6202139e-14 0)
(0.00031212557 1.7764892e-14 0)
(0.00031212557 1.7183012e-14 0)
(0.00031212557 1.8837671e-14 0)
(0.00031212557 1.8147239e-14 0)
(0.00031212557 1.9875394e-14 0)
(0.00031212557 1.9056423e-14 0)
(0.00031212557 2.0837529e-14 0)
(0.00031212557 1.9862836e-14 0)
(0.00031212557 2.1684144e-14 0)
(0.00031212557 2.0537705e-14 0)
(0.00031212557 2.2379574e-14 0)
(0.00031212557 2.1042859e-14 0)
(0.00031212557 2.2889239e-14 0)
(0.00031212557 2.1348658e-14 0)
(0.00031212557 2.3187469e-14 0)
(0.00031212557 2.1429119e-14 0)
(0.00031212557 2.3241886e-14 0)
(0.00031212557 2.1260936e-14 0)
(0.00031212556 2.3036921e-14 0)
(0.00031212556 2.0826292e-14 0)
(0.00031212556 2.2554263e-14 0)
(0.00031212556 2.0110162e-14 0)
(0.00031212556 2.1779138e-14 0)
(0.00031212556 1.9108571e-14 0)
(0.00031212556 2.070798e-14 0)
(0.00031212556 1.7816087e-14 0)
(0.00031212556 1.9341494e-14 0)
(0.00031212556 1.6234566e-14 0)
(0.00031212556 1.7681983e-14 0)
(0.00031212556 1.4377544e-14 0)
(0.00031212556 1.5741993e-14 0)
(0.00031212556 1.2256569e-14 0)
(0.00031212556 1.3541639e-14 0)
(0.00031212556 9.8935598e-15 0)
(0.00031212556 1.1098864e-14 0)
(0.00031212556 7.3141681e-15 0)
(0.00031212556 8.4432715e-15 0)
(0.00031212556 4.5463229e-15 0)
(0.00031212556 5.6076533e-15 0)
(0.00031212556 1.6278907e-15 0)
(0.00031212556 2.6261215e-15 0)
(0.00031212556 -1.4080026e-15 0)
(0.00031212556 -4.6350246e-16 0)
(0.00031212556 -4.5168636e-15 0)
(0.00031212556 -3.6171589e-15 0)
(0.00031212556 -7.6627749e-15 0)
(0.00031212556 -6.7961263e-15 0)
(0.00031212556 -1.0800897e-14 0)
(0.00031212556 -9.9553576e-15 0)
(0.00031212556 -1.3884443e-14 0)
(0.00031212556 -1.3052892e-14 0)
(0.00031212556 -1.6877787e-14 0)
(0.00031212556 -1.6043751e-14 0)
(0.00031212556 -1.973778e-14 0)
(0.00031212556 -1.8891944e-14 0)
(0.00031212556 -2.2424838e-14 0)
(0.00031212556 -2.1556174e-14 0)
(0.00031212556 -2.4904964e-14 0)
(0.00031212556 -2.400586e-14 0)
(0.00031212556 -2.7143651e-14 0)
(0.00031212556 -2.6205423e-14 0)
(0.00031212556 -2.9115989e-14 0)
(0.00031212556 -2.8127481e-14 0)
(0.00031212556 -3.0797089e-14 0)
(0.00031212556 -2.9750859e-14 0)
(0.00031212556 -3.2163443e-14 0)
(0.00031212556 -3.1058784e-14 0)
(0.00031212556 -3.3200958e-14 0)
(0.00031212556 -3.2032651e-14 0)
(0.00031212556 -3.3905398e-14 0)
(0.00031212556 -3.2668101e-14 0)
(0.00031212556 -3.4266327e-14 0)
(0.00031212556 -3.2960799e-14 0)
(0.00031212556 -3.4285364e-14 0)
(0.00031212557 -3.2915043e-14 0)
(0.00031212557 -3.3971898e-14 0)
(0.00031212557 -3.2534395e-14 0)
(0.00031212557 -3.3331361e-14 0)
(0.00031212557 -3.1835454e-14 0)
(0.00031212557 -3.2384943e-14 0)
(0.00031212557 -3.0832967e-14 0)
(0.00031212557 -3.1148908e-14 0)
(0.00031212557 -2.9546303e-14 0)
(0.00031212557 -2.9649008e-14 0)
(0.00031212557 -2.8006536e-14 0)
(0.00031212557 -2.7912952e-14 0)
(0.00031212557 -2.6236695e-14 0)
(0.00031212557 -2.5969117e-14 0)
(0.00031212557 -2.4269916e-14 0)
(0.00031212557 -2.3852053e-14 0)
(0.00031212557 -2.2140813e-14 0)
(0.00031212557 -2.1593655e-14 0)
(0.00031212557 -1.9876891e-14 0)
(0.00031212557 -1.9231291e-14 0)
(0.00031212557 -1.7518714e-14 0)
(0.00031212557 -1.6796499e-14 0)
(0.00031212557 -1.5097912e-14 0)
(0.00031212557 -1.4318316e-14 0)
(0.00031212557 -1.2643785e-14 0)
(0.00031212557 -1.1836811e-14 0)
(0.00031212557 -1.0189643e-14 0)
(0.00031212557 -9.3725665e-15 0)
(0.00031212557 -7.7594139e-15 0)
(0.00031212557 -6.9541352e-15 0)
(0.00031212557 -5.3792161e-15 0)
(0.00031212557 -4.6047589e-15 0)
(0.00031212557 -3.0691348e-15 0)
(0.00031212557 -2.3376435e-15 0)
(0.00031212557 -8.4521548e-16 0)
(0.00031212557 -1.7329861e-16 0)
(0.00031212557 1.2788735e-15 0)
(0.00031212557 1.878704e-15 0)
(0.00031212557 3.2966527e-15 0)
(0.00031212557 3.8142466e-15 0)
(0.00031212557 5.195083e-15 0)
(0.00031212557 5.6273061e-15 0)
(0.00031212557 6.9770935e-15 0)
(0.00031212557 7.313796e-15 0)
(0.00031212557 8.6406904e-15 0)
(0.00031212557 8.8770219e-15 0)
(0.00031212557 1.018602e-14 0)
(0.00031212557 1.0318781e-14 0)
(0.00031212557 1.161606e-14 0)
(0.00031212557 1.1640077e-14 0)
(0.00031212557 1.2931894e-14 0)
(0.00031212557 1.2847331e-14 0)
(0.00031212557 1.4136416e-14 0)
(0.00031212557 1.3939914e-14 0)
(0.00031212557 1.5230769e-14 0)
(0.00031212557 1.4920835e-14 0)
(0.00031212557 1.621896e-14 0)
(0.00031212557 1.5787866e-14 0)
(0.00031212557 1.7095979e-14 0)
(0.00031212557 1.6542055e-14 0)
(0.00031212557 1.7859129e-14 0)
(0.00031212557 1.7181972e-14 0)
(0.00031212557 1.8507204e-14 0)
(0.00031212557 1.7699811e-14 0)
(0.00031212557 1.9030452e-14 0)
(0.00031212557 1.809088e-14 0)
(0.00031212557 1.9429495e-14 0)
(0.00031212557 1.8349254e-14 0)
(0.00031212557 1.9689025e-14 0)
(0.00031212557 1.8469124e-14 0)
(0.00031212557 1.980517e-14 0)
(0.00031212557 1.844376e-14 0)
(0.00031212557 1.9772989e-14 0)
(0.00031212557 1.8262968e-14 0)
(0.00031212557 1.9582753e-14 0)
(0.00031212557 1.7927733e-14 0)
(0.00031212557 1.9235821e-14 0)
(0.00031212557 1.7439316e-14 0)
(0.00031212557 1.8728232e-14 0)
(0.00031212557 1.6795543e-14 0)
(0.00031212557 1.8076151e-14 0)
(0.00031212557 1.6017535e-14 0)
(0.00031212557 1.7286987e-14 0)
(0.00031212556 1.5120931e-14 0)
(0.00031212556 1.6386619e-14 0)
(0.00031212556 1.4130123e-14 0)
(0.00031212556 1.5410687e-14 0)
(0.00031212556 1.3086446e-14 0)
(0.00031212556 1.4388076e-14 0)
(0.00031212556 1.2024256e-14 0)
(0.00031212556 1.3363395e-14 0)
(0.00031212556 1.0985241e-14 0)
(0.00031212556 1.2374677e-14 0)
(0.00031212556 1.0007784e-14 0)
(0.00031212556 1.1458312e-14 0)
(0.00031212556 9.12637e-15 0)
(0.00031212556 1.0639747e-14 0)
(0.00031212556 8.3565084e-15 0)
(0.00031212556 9.9364771e-15 0)
(0.00031212556 7.7040202e-15 0)
(0.00031212556 9.3235361e-15 0)
(0.00031212556 7.133863e-15 0)
(0.00031212556 8.7464307e-15 0)
(0.00031212556 6.5388384e-15 0)
(0.00031212556 8.0614154e-15 0)
(0.00031212556 5.7310908e-15 0)
(0.00031212556 7.0084132e-15 0)
(0.00031212556 4.3733864e-15 0)
(0.00031212556 5.1598598e-15 0)
(0.00031212556 1.9358015e-15 0)
(0.00031212556 1.8785307e-15 0)
(0.00031212556 -2.340066e-15 0)
(0.00031212556 -3.7260788e-15 0)
(0.00031212556 -9.480351e-15 0)
(0.00031212556 -1.2807595e-14 0)
(0.00031212556 -2.0769987e-14 0)
(0.00031212556 -2.6777077e-14 0)
(0.00031212556 -3.7731462e-14 0)
(0.00031212556 -4.7258921e-14 0)
(0.00031212556 -6.2056721e-14 0)
(0.00031212556 -7.5982068e-14 0)
(0.00031212557 -9.550225e-14 0)
(0.00031212557 -1.1465435e-13 0)
(0.00031212557 -1.3965505e-13 0)
(0.00031212557 -1.6468095e-13 0)
(0.00031212557 -1.9564412e-13 0)
(0.00031212557 -2.2676004e-13 0)
(0.00031212557 -2.6356726e-13 0)
(0.00031212558 -3.0019092e-13 0)
(0.00031212558 -3.4167863e-13 0)
(0.00031212558 -3.8188901e-13 0)
(0.00031212558 -4.251927e-13 0)
(0.00031212559 -4.6497913e-13 0)
(0.00031212559 -5.047264e-13 0)
(0.00031212559 -5.3705951e-13 0)
(0.0003121256 -5.6433945e-13 0)
(0.0003121256 -5.7812692e-13 0)
(0.0003121256 -5.793887e-13 0)
(0.0003121256 -5.5828389e-13 0)
(0.0003121256 -5.1416486e-13 0)
(0.0003121256 -4.3544289e-13 0)
(0.0003121256 -3.1966041e-13 0)
(0.0003121256 -1.5319835e-13 0)
(0.0003121256 6.8247711e-14 0)
(0.00031212559 3.604179e-13 0)
(0.00031212558 7.29204e-13 0)
(0.00031212556 1.192129e-12 0)
(0.00031212554 1.7559253e-12 0)
(0.00031212552 2.4388561e-12 0)
(0.00031212548 3.2472048e-12 0)
(0.00031212544 4.1981602e-12 0)
(0.0003121254 5.2954672e-12 0)
(0.00031212534 6.5529975e-12 0)
(0.00031212527 7.9707876e-12 0)
(0.00031212519 9.5589844e-12 0)
(0.0003121251 1.1319835e-11 0)
(0.00031212499 1.3279042e-11 0)
(0.00031212488 1.551606e-11 0)
(0.00031212474 1.8304442e-11 0)
(0.00031212459 2.2129287e-11 0)
(0.00031212443 2.6757985e-11 0)
(0.00031212423 3.4711189e-11 0)
(0.00031212391 9.7261408e-11 0)
(0.0041865275 0.0011209905 0)
(0.0040831123 0.0012767276 0)
(0.0035539567 0.00095037855 0)
(0.0030179069 0.0006567221 0)
(0.002580841 0.00044892376 0)
(0.002236249 0.00031083901 0)
(0.0019675733 0.00022067339 0)
(0.0017583831 0.00016116468 0)
(0.0015944152 0.00012088357 0)
(0.0014646485 9.2770978e-05 0)
(0.0013609497 7.2533369e-05 0)
(0.0012773605 5.7540843e-05 0)
(0.0012094902 4.6153103e-05 0)
(0.0011540649 3.7321167e-05 0)
(0.0011086064 3.0354625e-05 0)
(0.0010712093 2.4785256e-05 0)
(0.0010403855 2.0286058e-05 0)
(0.0010149564 1.6622246e-05 0)
(0.00099397713 1.3620911e-05 0)
(0.00097668179 1.115177e-05 0)
(0.00096244401 9.114653e-06 0)
(0.00095074781 7.4311645e-06 0)
(0.00094116566 6.0390049e-06 0)
(0.00093334171 4.8880152e-06 0)
(0.00092697882 3.9373662e-06 0)
(0.00092182833 3.153522e-06 0)
(0.00091768187 2.508736e-06 0)
(0.00091436477 1.9799206e-06 0)
(0.00091173063 1.5477826e-06 0)
(0.00090965686 1.1961505e-06 0)
(0.00090804097 9.1144334e-07 0)
(0.00090679742 6.8224395e-07 0)
(0.000905855 4.989531e-07 0)
(0.00090515463 3.5350447e-07 0)
(0.00090464741 2.3912798e-07 0)
(0.00090429305 1.5015161e-07 0)
(0.00090405851 8.1834066e-08 0)
(0.00090391679 3.0222987e-08 0)
(0.00090384597 -7.9657938e-09 0)
(0.00090382836 -3.5451271e-08 0)
(0.00090384978 -5.447533e-08 0)
(0.00090389895 -6.6878006e-08 0)
(0.00090396699 -7.4161833e-08 0)
(0.00090404696 -7.7546762e-08 0)
(0.00090413354 -7.8016986e-08 0)
(0.00090422271 -7.6360766e-08 0)
(0.00090431146 -7.3204226e-08 0)
(0.00090439763 -6.9039939e-08 0)
(0.00090447974 -6.4251046e-08 0)
(0.00090455678 -5.9131515e-08 0)
(0.00090462818 -5.390311e-08 0)
(0.00090469366 -4.8729539e-08 0)
(0.00090475317 -4.3728193e-08 0)
(0.00090480682 -3.8979854e-08 0)
(0.00090485485 -3.4536672e-08 0)
(0.00090489756 -3.0428676e-08 0)
(0.00090493533 -2.6669086e-08 0)
(0.00090496855 -2.325857e-08 0)
(0.0009049976 -2.0188683e-08 0)
(0.0009050229 -1.7444569e-08 0)
(0.00090504483 -1.5007114e-08 0)
(0.00090506375 -1.2854586e-08 0)
(0.00090507999 -1.0963927e-08 0)
(0.00090509389 -9.3116905e-09 0)
(0.00090510573 -7.8747637e-09 0)
(0.00090511577 -6.6308495e-09 0)
(0.00090512424 -5.5588359e-09 0)
(0.00090513137 -4.6389863e-09 0)
(0.00090513734 -3.8530942e-09 0)
(0.00090514231 -3.1845019e-09 0)
(0.00090514643 -2.6181316e-09 0)
(0.00090514983 -2.1404078e-09 0)
(0.00090515262 -1.7392241e-09 0)
(0.0009051549 -1.4038191e-09 0)
(0.00090515675 -1.1247147e-09 0)
(0.00090515824 -8.935753e-10 0)
(0.00090515943 -7.0314021e-10 0)
(0.00090516037 -5.4708265e-10 0)
(0.00090516111 -4.1994802e-10 0)
(0.00090516169 -3.1702261e-10 0)
(0.00090516212 -2.3428284e-10 0)
(0.00090516245 -1.6827806e-10 0)
(0.00090516269 -1.1609238e-10 0)
(0.00090516287 -7.5242997e-11 0)
(0.00090516298 -4.3654039e-11 0)
(0.00090516306 -1.9570003e-11 0)
(0.0009051631 -1.5400852e-12 0)
(0.00090516312 1.165449e-11 0)
(0.00090516311 2.100776e-11 0)
(0.0009051631 2.7349352e-11 0)
(0.00090516307 3.1345465e-11 0)
(0.00090516304 3.3548516e-11 0)
(0.000905163 3.4393719e-11 0)
(0.00090516296 3.423959e-11 0)
(0.00090516293 3.3361762e-11 0)
(0.00090516289 3.198574e-11 0)
(0.00090516285 3.0279291e-11 0)
(0.00090516282 2.8378601e-11 0)
(0.00090516278 2.6380315e-11 0)
(0.00090516275 2.4362098e-11 0)
(0.00090516272 2.2375087e-11 0)
(0.00090516269 2.04597e-11 0)
(0.00090516267 1.8639045e-11 0)
(0.00090516265 1.6930655e-11 0)
(0.00090516263 1.5341273e-11 0)
(0.00090516261 1.3875031e-11 0)
(0.00090516259 1.2529844e-11 0)
(0.00090516258 1.1302506e-11 0)
(0.00090516256 1.018684e-11 0)
(0.00090516255 9.1760512e-12 0)
(0.00090516254 8.2626814e-12 0)
(0.00090516253 7.4385499e-12 0)
(0.00090516252 6.6965082e-12 0)
(0.00090516251 6.0281937e-12 0)
(0.00090516251 5.4275555e-12 0)
(0.0009051625 4.8866376e-12 0)
(0.00090516249 4.4007972e-12 0)
(0.00090516249 3.9627145e-12 0)
(0.00090516248 3.5691947e-12 0)
(0.00090516248 3.2135654e-12 0)
(0.00090516248 2.893978e-12 0)
(0.00090516247 2.6043366e-12 0)
(0.00090516247 2.3439584e-12 0)
(0.00090516247 2.10722e-12 0)
(0.00090516246 1.8944227e-12 0)
(0.00090516246 1.7002903e-12 0)
(0.00090516246 1.5259255e-12 0)
(0.00090516246 1.3663174e-12 0)
(0.00090516246 1.2232065e-12 0)
(0.00090516246 1.0917617e-12 0)
(0.00090516246 9.7422855e-13 0)
(0.00090516245 8.6590649e-13 0)
(0.00090516245 7.6942573e-13 0)
(0.00090516245 6.8019804e-13 0)
(0.00090516245 6.011209e-13 0)
(0.00090516245 5.27721e-13 0)
(0.00090516245 4.6307473e-13 0)
(0.00090516245 4.0283081e-13 0)
(0.00090516245 3.5016076e-13 0)
(0.00090516245 3.0086356e-13 0)
(0.00090516245 2.5812329e-13 0)
(0.00090516245 2.1792997e-13 0)
(0.00090516245 1.8341733e-13 0)
(0.00090516245 1.5078992e-13 0)
(0.00090516245 1.2306048e-13 0)
(0.00090516245 9.6711995e-14 0)
(0.00090516245 7.4555854e-14 0)
(0.00090516245 5.3411345e-14 0)
(0.00090516245 3.5820443e-14 0)
(0.00090516245 1.8977569e-14 0)
(0.00090516245 5.0987678e-15 0)
(0.00090516245 -8.1800645e-15 0)
(0.00090516245 -1.9044945e-14 0)
(0.00090516245 -2.9370827e-14 0)
(0.00090516245 -3.780783e-14 0)
(0.00090516245 -4.567476e-14 0)
(0.00090516245 -5.2157697e-14 0)
(0.00090516245 -5.7971882e-14 0)
(0.00090516245 -6.2888511e-14 0)
(0.00090516244 -6.6966165e-14 0)
(0.00090516244 -7.0631905e-14 0)
(0.00090516244 -7.324126e-14 0)
(0.00090516244 -7.590454e-14 0)
(0.00090516244 -7.7242958e-14 0)
(0.00090516244 -7.9115302e-14 0)
(0.00090516244 -7.9351621e-14 0)
(0.00090516244 -8.0596444e-14 0)
(0.00090516244 -7.9862354e-14 0)
(0.00090516244 -8.060981e-14 0)
(0.00090516244 -7.9021752e-14 0)
(0.00090516244 -7.9391209e-14 0)
(0.00090516244 -7.703615e-14 0)
(0.00090516244 -7.7119049e-14 0)
(0.00090516244 -7.4083232e-14 0)
(0.00090516244 -7.3963061e-14 0)
(0.00090516244 -7.0325322e-14 0)
(0.00090516243 -7.0070497e-14 0)
(0.00090516243 -6.5899889e-14 0)
(0.00090516243 -6.5577349e-14 0)
(0.00090516243 -6.0946422e-14 0)
(0.00090516243 -6.0613351e-14 0)
(0.00090516243 -5.5588426e-14 0)
(0.00090516243 -5.5294657e-14 0)
(0.00090516243 -4.9945182e-14 0)
(0.00090516243 -4.9740313e-14 0)
(0.00090516243 -4.4132733e-14 0)
(0.00090516243 -4.4055479e-14 0)
(0.00090516243 -3.8253696e-14 0)
(0.00090516243 -3.8340979e-14 0)
(0.00090516243 -3.241166e-14 0)
(0.00090516242 -3.2693812e-14 0)
(0.00090516242 -2.6689464e-14 0)
(0.00090516242 -2.7182479e-14 0)
(0.00090516242 -2.1172913e-14 0)
(0.00090516242 -2.1899565e-14 0)
(0.00090516242 -1.5923394e-14 0)
(0.00090516242 -1.6887503e-14 0)
(0.00090516242 -1.1005299e-14 0)
(0.00090516242 -1.2208754e-14 0)
(0.00090516242 -6.4552457e-15 0)
(0.00090516242 -7.8914164e-15 0)
(0.00090516242 -2.3055467e-15 0)
(0.00090516242 -3.9645818e-15 0)
(0.00090516242 1.4244887e-15 0)
(0.00090516242 -4.3615051e-16 0)
(0.00090516242 4.7263025e-15 0)
(0.00090516242 2.6860587e-15 0)
(0.00090516242 7.6018244e-15 0)
(0.00090516242 5.4092163e-15 0)
(0.00090516242 1.0064242e-14 0)
(0.00090516242 7.7494932e-15 0)
(0.00090516242 1.2128596e-14 0)
(0.00090516242 9.7303029e-15 0)
(0.00090516242 1.3822183e-14 0)
(0.00090516242 1.1370537e-14 0)
(0.00090516242 1.5176329e-14 0)
(0.00090516242 1.2701918e-14 0)
(0.00090516242 1.6216042e-14 0)
(0.00090516242 1.3756922e-14 0)
(0.00090516242 1.6979633e-14 0)
(0.00090516242 1.4568088e-14 0)
(0.00090516242 1.7493471e-14 0)
(0.00090516242 1.5163684e-14 0)
(0.00090516242 1.7800849e-14 0)
(0.00090516242 1.5570972e-14 0)
(0.00090516242 1.7918862e-14 0)
(0.00090516242 1.581779e-14 0)
(0.00090516242 1.788597e-14 0)
(0.00090516243 1.5924365e-14 0)
(0.00090516243 1.7711104e-14 0)
(0.00090516243 1.5915623e-14 0)
(0.00090516243 1.7423562e-14 0)
(0.00090516243 1.5795589e-14 0)
(0.00090516243 1.7030233e-14 0)
(0.00090516243 1.5576369e-14 0)
(0.00090516243 1.6544502e-14 0)
(0.00090516243 1.5266672e-14 0)
(0.00090516243 1.5965924e-14 0)
(0.00090516243 1.485741e-14 0)
(0.00090516243 1.5296457e-14 0)
(0.00090516243 1.4353875e-14 0)
(0.00090516243 1.45358e-14 0)
(0.00090516244 1.3739481e-14 0)
(0.00090516244 1.3659838e-14 0)
(0.00090516244 1.3007265e-14 0)
(0.00090516244 1.2679211e-14 0)
(0.00090516244 1.2139148e-14 0)
(0.00090516244 1.1561458e-14 0)
(0.00090516244 1.1119755e-14 0)
(0.00090516244 1.0303977e-14 0)
(0.00090516244 9.9428495e-15 0)
(0.00090516244 8.8849555e-15 0)
(0.00090516244 8.5760088e-15 0)
(0.00090516244 7.2923463e-15 0)
(0.00090516244 7.0212865e-15 0)
(0.00090516244 5.5225324e-15 0)
(0.00090516244 5.2612103e-15 0)
(0.00090516245 3.5555946e-15 0)
(0.00090516245 3.2875549e-15 0)
(0.00090516245 1.3984343e-15 0)
(0.00090516245 1.1129068e-15 0)
(0.00090516245 -9.4980115e-16 0)
(0.00090516245 -1.272701e-15 0)
(0.00090516245 -3.4827473e-15 0)
(0.00090516245 -3.8438015e-15 0)
(0.00090516245 -6.1684131e-15 0)
(0.00090516245 -6.5844954e-15 0)
(0.00090516245 -9.0054486e-15 0)
(0.00090516245 -9.4664232e-15 0)
(0.00090516245 -1.1944184e-14 0)
(0.00090516245 -1.2451964e-14 0)
(0.00090516245 -1.495166e-14 0)
(0.00090516245 -1.5500576e-14 0)
(0.00090516245 -1.7983862e-14 0)
(0.00090516245 -1.8560094e-14 0)
(0.00090516245 -2.0986596e-14 0)
(0.00090516245 -2.1578726e-14 0)
(0.00090516245 -2.3905649e-14 0)
(0.00090516245 -2.4495147e-14 0)
(0.00090516245 -2.6684905e-14 0)
(0.00090516245 -2.7254551e-14 0)
(0.00090516245 -2.9264324e-14 0)
(0.00090516245 -2.9792607e-14 0)
(0.00090516245 -3.1575298e-14 0)
(0.00090516245 -3.2058352e-14 0)
(0.00090516245 -3.3581231e-14 0)
(0.00090516245 -3.3989462e-14 0)
(0.00090516245 -3.521746e-14 0)
(0.00090516245 -3.5539044e-14 0)
(0.00090516245 -3.6442489e-14 0)
(0.00090516245 -3.6665508e-14 0)
(0.00090516245 -3.7214717e-14 0)
(0.00090516245 -3.7328064e-14 0)
(0.00090516245 -3.7501067e-14 0)
(0.00090516244 -3.7497383e-14 0)
(0.00090516244 -3.7269984e-14 0)
(0.00090516244 -3.714612e-14 0)
(0.00090516244 -3.6511205e-14 0)
(0.00090516244 -3.6252951e-14 0)
(0.00090516244 -3.51953e-14 0)
(0.00090516244 -3.4804861e-14 0)
(0.00090516244 -3.3312183e-14 0)
(0.00090516244 -3.2784973e-14 0)
(0.00090516244 -3.0846833e-14 0)
(0.00090516244 -3.0172816e-14 0)
(0.00090516244 -2.7776132e-14 0)
(0.00090516244 -2.694305e-14 0)
(0.00090516244 -2.4079251e-14 0)
(0.00090516244 -2.3060335e-14 0)
(0.00090516244 -1.9698403e-14 0)
(0.00090516244 -1.8470279e-14 0)
(0.00090516244 -1.4582597e-14 0)
(0.00090516244 -1.3090689e-14 0)
(0.00090516244 -8.6320399e-15 0)
(0.00090516243 -6.8222662e-15 0)
(0.00090516243 -1.7377615e-15 0)
(0.00090516243 4.6879584e-16 0)
(0.00090516243 6.2584625e-15 0)
(0.00090516243 8.9556598e-15 0)
(0.00090516243 1.5520938e-14 0)
(0.00090516243 1.8820218e-14 0)
(0.00090516243 2.6248963e-14 0)
(0.00090516243 3.0257247e-14 0)
(0.00090516243 3.8657192e-14 0)
(0.00090516243 4.3486176e-14 0)
(0.00090516243 5.2926504e-14 0)
(0.00090516243 5.8674857e-14 0)
(0.00090516243 6.9208557e-14 0)
(0.00090516243 7.5925437e-14 0)
(0.00090516243 8.7539872e-14 0)
(0.00090516243 9.5191457e-14 0)
(0.00090516243 1.0776065e-13 0)
(0.00090516243 1.1617165e-13 0)
(0.00090516243 1.2937891e-13 0)
(0.00090516243 1.381354e-13 0)
(0.00090516243 1.5139196e-13 0)
(0.00090516242 1.5973781e-13 0)
(0.00090516242 1.7201804e-13 0)
(0.00090516242 1.7870667e-13 0)
(0.00090516242 1.8842377e-13 0)
(0.00090516242 1.9153502e-13 0)
(0.00090516242 1.9635338e-13 0)
(0.00090516242 1.9312293e-13 0)
(0.00090516242 1.8974298e-13 0)
(0.00090516242 1.7636798e-13 0)
(0.00090516242 1.6037978e-13 0)
(0.00090516242 1.3182769e-13 0)
(0.00090516242 9.7522507e-14 0)
(0.00090516242 4.7449252e-14 0)
(0.00090516242 -1.2229519e-14 0)
(0.00090516242 -9.152418e-14 0)
(0.00090516242 -1.8490505e-13 0)
(0.00090516242 -3.0225929e-13 0)
(0.00090516242 -4.3858548e-13 0)
(0.00090516243 -6.0342784e-13 0)
(0.00090516243 -7.9209931e-13 0)
(0.00090516243 -1.013391e-12 0)
(0.00090516243 -1.262518e-12 0)
(0.00090516243 -1.5469317e-12 0)
(0.00090516244 -1.8610168e-12 0)
(0.00090516244 -2.2100376e-12 0)
(0.00090516244 -2.586499e-12 0)
(0.00090516245 -2.9922544e-12 0)
(0.00090516245 -3.4164685e-12 0)
(0.00090516246 -3.8559569e-12 0)
(0.00090516246 -4.2946457e-12 0)
(0.00090516247 -4.722214e-12 0)
(0.00090516248 -5.1149974e-12 0)
(0.00090516248 -5.4529627e-12 0)
(0.00090516249 -5.7020761e-12 0)
(0.0009051625 -5.8296436e-12 0)
(0.00090516251 -5.7881218e-12 0)
(0.00090516251 -5.5289423e-12 0)
(0.00090516252 -4.9878351e-12 0)
(0.00090516253 -4.0972464e-12 0)
(0.00090516253 -2.773248e-12 0)
(0.00090516253 -9.2688322e-13 0)
(0.00090516253 1.547323e-12 0)
(0.00090516252 4.7605105e-12 0)
(0.00090516251 8.8393327e-12 0)
(0.00090516249 1.3914767e-11 0)
(0.00090516246 2.013025e-11 0)
(0.00090516243 2.7628997e-11 0)
(0.00090516238 3.6560272e-11 0)
(0.00090516232 4.7064041e-11 0)
(0.00090516224 5.927492e-11 0)
(0.00090516214 7.330367e-11 0)
(0.00090516203 8.9238325e-11 0)
(0.00090516189 1.0712266e-10 0)
(0.00090516173 1.269555e-10 0)
(0.00090516153 1.4867186e-10 0)
(0.00090516131 1.7215416e-10 0)
(0.00090516106 1.9723612e-10 0)
(0.00090516077 2.2376019e-10 0)
(0.00090516045 2.5174772e-10 0)
(0.0009051601 2.8179032e-10 0)
(0.00090515971 3.1527519e-10 0)
(0.00090515928 3.5482826e-10 0)
(0.00090515883 4.1020969e-10 0)
(0.00090515818 5.205283e-10 0)
(0.0042498184 0.00094432497 0)
(0.0043975223 0.00141648 0)
(0.004218665 0.0013124192 0)
(0.0038960456 0.0010699741 0)
(0.0035421994 0.00083182324 0)
(0.0032087183 0.00063734141 0)
(0.0029158442 0.00048919621 0)
(0.0026674518 0.00037890015 0)
(0.0024601615 0.0002968647 0)
(0.0022883174 0.00023527968 0)
(0.0021461246 0.00018840462 0)
(0.0020284164 0.00015218252 0)
(0.0019308452 0.00012378047 0)
(0.0018498445 0.00010121522 0)
(0.0017825157 8.3083242e-05 0)
(0.0017265056 6.8375921e-05 0)
(0.001679898 5.6355632e-05 0)
(0.0016411244 4.6473008e-05 0)
(0.0016088936 3.8311466e-05 0)
(0.0015821368 3.1549671e-05 0)
(0.0015599646 2.5935811e-05 0)
(0.0015416338 2.1269708e-05 0)
(0.001526521 1.739021e-05 0)
(0.0015141021 1.4166143e-05 0)
(0.0015039355 1.1489739e-05 0)
(0.0014956488 9.2717663e-06 0)
(0.0014889278 7.4378809e-06 0)
(0.0014835073 5.9258366e-06 0)
(0.0014791639 4.6833265e-06 0)
(0.0014757093 3.666283e-06 0)
(0.0014729854 2.8375214e-06 0)
(0.0014708595 2.1656421e-06 0)
(0.0014692206 1.6241312e-06 0)
(0.0014679762 1.1906152e-06 0)
(0.0014670491 8.4623837e-07 0)
(0.0014663757 5.7513715e-07 0)
(0.0014659031 3.6399528e-07 0)
(0.0014655883 2.0166409e-07 0)
(0.0014653959 7.8837977e-08 0)
(0.001465297 -1.2223675e-08 0)
(0.0014652686 -7.7935158e-08 0)
(0.0014652919 -1.2358928e-07 0)
(0.0014653522 -1.535331e-07 0)
(0.0014654377 -1.7131853e-07 0)
(0.0014655393 -1.7983117e-07 0)
(0.00146565 -1.8140039e-07 0)
(0.0014657645 -1.7789295e-07 0)
(0.0014658788 -1.7079267e-07 0)
(0.00146599 -1.6126774e-07 0)
(0.0014660961 -1.5022767e-07 0)
(0.0014661958 -1.3837105e-07 0)
(0.0014662883 -1.2622561e-07 0)
(0.0014663732 -1.1418164e-07 0)
(0.0014664504 -1.0251973e-07 0)
(0.0014665201 -9.1433676e-08 0)
(0.0014665825 -8.104937e-08 0)
(0.001466638 -7.1440181e-08 0)
(0.0014666872 -6.2639501e-08 0)
(0.0014667304 -5.4650853e-08 0)
(0.0014667682 -4.7456001e-08 0)
(0.0014668012 -4.1021378e-08 0)
(0.0014668298 -3.5303158e-08 0)
(0.0014668545 -3.0251186e-08 0)
(0.0014668757 -2.5812004e-08 0)
(0.0014668938 -2.1931123e-08 0)
(0.0014669093 -1.85547e-08 0)
(0.0014669224 -1.5630743e-08 0)
(0.0014669335 -1.3109931e-08 0)
(0.0014669428 -1.0946146e-08 0)
(0.0014669506 -9.0967775e-09 0)
(0.0014669571 -7.5228471e-09 0)
(0.0014669625 -6.189017e-09 0)
(0.001466967 -5.0634903e-09 0)
(0.0014669707 -4.1178609e-09 0)
(0.0014669737 -3.3269051e-09 0)
(0.0014669761 -2.6683613e-09 0)
(0.0014669781 -2.1226825e-09 0)
(0.0014669796 -1.6727983e-09 0)
(0.0014669809 -1.303868e-09 0)
(0.0014669819 -1.0030546e-09 0)
(0.0014669826 -7.5929975e-10 0)
(0.0014669832 -5.6312412e-10 0)
(0.0014669837 -4.0643251e-10 0)
(0.001466984 -2.8234681e-10 0)
(0.0014669842 -1.8504351e-10 0)
(0.0014669844 -1.0961849e-10 0)
(0.0014669845 -5.1955869e-11 0)
(0.0014669845 -8.6215157e-12 0)
(0.0014669846 2.3240228e-11 0)
(0.0014669846 4.5988342e-11 0)
(0.0014669845 6.1564859e-11 0)
(0.0014669845 7.155631e-11 0)
(0.0014669845 7.7254119e-11 0)
(0.0014669844 7.9699813e-11 0)
(0.0014669844 7.9730011e-11 0)
(0.0014669843 7.8009031e-11 0)
(0.0014669843 7.50618e-11 0)
(0.0014669842 7.129694e-11 0)
(0.0014669842 6.7030422e-11 0)
(0.0014669841 6.2501584e-11 0)
(0.0014669841 5.7889793e-11 0)
(0.0014669841 5.332538e-11 0)
(0.001466984 4.8901072e-11 0)
(0.001466984 4.4679375e-11 0)
(0.001466984 4.0700127e-11 0)
(0.0014669839 3.6985482e-11 0)
(0.0014669839 3.3544645e-11 0)