/*--------------------------------*- C++ -*----------------------------------*\
| =========                 |                                                 |
| \\      /  F ield         | OpenFOAM: The Open Source CFD Toolbox           |
|  \\    /   O peration     | Version:  2406                                  |
|   \\  /    A nd           | Website:  www.openfoam.com                      |
|    \\/     M anipulation  |                                                 |
\*---------------------------------------------------------------------------*/
FoamFile
{
    version     2.0;
    format      ascii;
    arch        "LSB;label=32;scalar=64";
    class       volScalarField;
    location    "1755";
    object      T;
}
// * * * * * * * * * * * * * * * * * * * * * * * * * * * * * * * * * * * * * //

dimensions      [0 0 0 0 0 0 0];

internalField   nonuniform List<scalar> 
10200
(
0.99698314
0.99696969
0.99696546
0.99696287
0.99696081
0.99695901
0.99695732
0.99695569
0.99695407
0.99695245
0.99694606
0.99692281
0.99688662
0.99684069
0.99678767
0.99672982
0.99666907
0.99660708
0.99654527
0.99648482
0.99642671
0.99637171
0.99632039
0.9962731
0.99623004
0.9961912
0.99615644
0.99612549
0.99609797
0.99607346
0.99605155
0.99603183
0.99601401
0.99599783
0.99598314
0.99596986
0.99595792
0.99594729
0.99593795
0.99592986
0.995923
0.99591733
0.99591281
0.9959094
0.99590693
0.99590446
0.99590198
0.9958995
0.99589703
0.99589456
0.99589211
0.99588967
0.99588726
0.99588486
0.99588249
0.99588015
0.99587783
0.99587554
0.99587328
0.99587105
0.99586884
0.99586667
0.99586453
0.99586241
0.99586033
0.99585827
0.99585624
0.99585423
0.99585226
0.9958503
0.99584838
0.99584648
0.9958446
0.99584274
0.99584091
0.99583909
0.9958373
0.99583553
0.99583378
0.99583205
0.99583033
0.99582864
0.99582696
0.99582529
0.99582364
0.99582201
0.99582039
0.99581879
0.9958172
0.99581562
0.99581406
0.9958125
0.99581096
0.99580943
0.99580791
0.9958064
0.9958049
0.99580341
0.99580193
0.99580046
0.995799
0.99579754
0.99579609
0.99579465
0.99579321
0.99579178
0.99579036
0.99578894
0.99578752
0.99578611
0.99578471
0.99578331
0.99578191
0.99578051
0.99577912
0.99577773
0.99577635
0.99577496
0.99577358
0.99577219
0.99577081
0.99576943
0.99576804
0.99576666
0.99576528
0.99576389
0.9957625
0.99576111
0.99575972
0.99575832
0.9957567
0.99575477
0.99575252
0.99574995
0.99574704
0.99574379
0.99574019
0.99573624
0.99573193
0.99572724
0.99572218
0.99571673
0.99571088
0.99570463
0.99569797
0.9956909
0.99568339
0.99567545
0.99566706
0.99565821
0.9956489
0.99563912
0.99562885
0.99561809
0.99560683
0.99559506
0.99558276
0.99556993
0.99555655
0.99554262
0.99552812
0.99551304
0.99549737
0.9954811
0.99546421
0.99544669
0.99542853
0.99540971
0.99539022
0.99537004
0.99534915
0.99532754
0.99530517
0.99528206
0.99525817
0.99523347
0.99520784
0.99518136
0.99515441
0.99512636
0.99509644
0.99506591
0.99503807
0.99500962
0.99495814
0.99492801
0.99489782
0.99486707
0.9948356
0.99480327
0.9947699
0.99473524
0.99469889
0.9946602
0.99461814
0.99457104
0.9945163
0.99445019
0.9943666
0.9942595
0.99729171
0.99737233
0.9974826
0.99758657
0.99767389
0.99774205
0.99779168
0.99782475
0.99784371
0.99785106
0.99784405
0.99781678
0.9977732
0.99771608
0.99764753
0.99756933
0.9974831
0.99739045
0.997293
0.9971924
0.99709039
0.99698872
0.99688917
0.99679344
0.99670315
0.99661968
0.99654411
0.99647713
0.99641899
0.99636941
0.99632769
0.9962928
0.99626355
0.9962388
0.99621759
0.99619929
0.99618354
0.99617018
0.99615914
0.99615038
0.99614386
0.99613952
0.99613727
0.99613702
0.99613691
0.99613722
0.99613794
0.99613902
0.99614044
0.99614217
0.99614417
0.99614641
0.99614887
0.99615152
0.99615434
0.99615731
0.9961604
0.9961636
0.9961669
0.99617027
0.99617371
0.9961772
0.99618074
0.99618431
0.9961879
0.99619151
0.99619513
0.99619875
0.99620237
0.99620599
0.9962096
0.99621319
0.99621676
0.99622031
0.99622383
0.99622733
0.9962308
0.99623423
0.99623763
0.996241
0.99624433
0.99624761
0.99625086
0.99625407
0.99625723
0.99626035
0.99626342
0.99626644
0.99626942
0.99627234
0.99627522
0.99627804
0.99628081
0.99628353
0.9962862
0.99628881
0.99629136
0.99629385
0.99629629
0.99629867
0.99630098
0.99630324
0.99630543
0.99630756
0.99630962
0.99631162
0.99631355
0.99631541
0.9963172
0.99631892
0.99632057
0.99632214
0.99632364
0.99632506
0.99632641
0.99632767
0.99632885
0.99632995
0.99633096
0.99633188
0.99633271
0.99633345
0.9963341
0.99633465
0.9963351
0.99633545
0.99633569
0.99633583
0.99633548
0.99633449
0.99633292
0.9963308
0.99632812
0.99632486
0.99632102
0.99631659
0.99631154
0.99630587
0.99629957
0.99629261
0.996285
0.9962767
0.9962677
0.996258
0.99624757
0.99623639
0.99622445
0.99621174
0.99619822
0.99618388
0.99616871
0.99615268
0.99613577
0.99611796
0.99609922
0.99607954
0.99605888
0.99603723
0.99601456
0.99599084
0.99596604
0.99594014
0.99591311
0.99588492
0.99585553
0.99582492
0.99579302
0.99575983
0.9957253
0.99568941
0.99565212
0.99561328
0.99557274
0.99553053
0.99548698
0.99544236
0.99539479
0.995343
0.9952934
0.99524404
0.99518586
0.99511977
0.99506576
0.99501188
0.99495691
0.99490068
0.99484302
0.99478377
0.99472279
0.99465986
0.99459468
0.99452681
0.99445558
0.99437997
0.99429844
0.99420872
0.99410757
0.99399083
0.99385358
0.99369422
0.99752118
0.99769787
0.99790699
0.99810302
0.99827099
0.99840541
0.99850551
0.99857329
0.99861234
0.99862701
0.99862157
0.99860468
0.99857763
0.99854075
0.99849392
0.99843682
0.99836905
0.99829028
0.99820032
0.99809922
0.99798734
0.99786544
0.9977348
0.99759728
0.99745538
0.99731222
0.99717148
0.99703715
0.99691322
0.99680322
0.99670962
0.99663346
0.99657405
0.99652919
0.99649573
0.99647045
0.99645077
0.99643509
0.99642272
0.99641343
0.99640715
0.99640379
0.99640326
0.99640335
0.99640474
0.99640738
0.99641114
0.99641592
0.99642161
0.99642811
0.99643534
0.9964432
0.99645163
0.99646054
0.99646989
0.9964796
0.99648963
0.99649993
0.99651046
0.99652119
0.99653207
0.99654308
0.9965542
0.99656539
0.99657663
0.99658792
0.99659922
0.99661053
0.99662182
0.99663309
0.99664433
0.99665552
0.99666665
0.99667772
0.99668872
0.99669964
0.99671047
0.99672121
0.99673184
0.99674238
0.9967528
0.9967631
0.99677328
0.99678334
0.99679327
0.99680306
0.99681271
0.99682222
0.99683158
0.9968408
0.99684985
0.99685875
0.99686748
0.99687605
0.99688445
0.99689267
0.99690072
0.99690858
0.99691626
0.99692374
0.99693103
0.99693813
0.99694502
0.9969517
0.99695818
0.99696444
0.99697047
0.99697629
0.99698187
0.99698722
0.99699233
0.9969972
0.99700181
0.99700617
0.99701027
0.99701411
0.99701767
0.99702096
0.99702396
0.99702667
0.99702908
0.99703119
0.99703298
0.99703446
0.99703562
0.99703644
0.99703661
0.99703573
0.99703403
0.99703161
0.99702844
0.99702451
0.9970198
0.99701429
0.99700797
0.99700081
0.99699279
0.99698389
0.99697409
0.99696335
0.99695166
0.99693899
0.9969253
0.99691057
0.99689476
0.99687785
0.99685978
0.99684054
0.99682008
0.99679835
0.99677533
0.99675096
0.99672521
0.99669801
0.99666934
0.99663913
0.99660733
0.99657389
0.99653876
0.99650187
0.99646315
0.99642254
0.99637999
0.99633543
0.99628884
0.99624012
0.99618912
0.99613561
0.99607952
0.99602101
0.99596073
0.99589812
0.9958316
0.99575985
0.99568425
0.99561336
0.99553912
0.99544223
0.99535422
0.99527163
0.99518759
0.99510122
0.99501227
0.9949206
0.99482607
0.99472858
0.99462798
0.99452409
0.99441668
0.99430541
0.99418982
0.99406922
0.99394262
0.99380858
0.99366505
0.99350917
0.99333722
0.99314491
0.99292846
0.99268848
0.9977016
0.99794632
0.99820996
0.99843948
0.99862043
0.99875183
0.99883971
0.998893
0.99892045
0.99892906
0.99892888
0.99892788
0.99892535
0.99892039
0.99891197
0.99889899
0.9988802
0.99885427
0.99881966
0.99877472
0.99871763
0.9986465
0.99855942
0.9984547
0.99833107
0.99818808
0.99802655
0.99784909
0.99766056
0.99746821
0.99728144
0.99711065
0.99696537
0.99685186
0.9967712
0.99671908
0.99668763
0.9966687
0.99665658
0.99664866
0.9966443
0.99664342
0.99664356
0.99664559
0.99664984
0.99665608
0.99666412
0.99667376
0.99668482
0.99669714
0.99671056
0.99672495
0.99674018
0.99675613
0.9967727
0.99678981
0.99680736
0.99682529
0.99684353
0.99686202
0.99688071
0.99689955
0.9969185
0.99693753
0.99695659
0.99697566
0.99699471
0.99701373
0.99703267
0.99705154
0.9970703
0.99708895
0.99710746
0.99712583
0.99714403
0.99716207
0.99717993
0.99719759
0.99721506
0.99723231
0.99724935
0.99726616
0.99728274
0.99729908
0.99731518
0.99733102
0.9973466
0.99736192
0.99737697
0.99739174
0.99740622
0.99742042
0.99743432
0.99744793
0.99746122
0.99747421
0.99748688
0.99749923
0.99751125
0.99752293
0.99753427
0.99754527
0.99755592
0.9975662
0.99757612
0.99758567
0.99759484
0.99760363
0.99761202
0.99762002
0.9976276
0.99763477
0.99764152
0.99764784
0.99765371
0.99765914
0.99766411
0.99766861
0.99767264
0.99767618
0.99767922
0.99768175
0.99768377
0.99768525
0.99768606
0.99768555
0.99768396
0.99768158
0.99767839
0.99767437
0.99766949
0.99766375
0.9976571
0.99764953
0.99764099
0.99763147
0.99762092
0.9976093
0.99759658
0.99758272
0.99756766
0.99755136
0.99753377
0.99751483
0.99749449
0.99747269
0.99744935
0.99742442
0.99739782
0.99736949
0.99733933
0.99730727
0.99727323
0.9972371
0.9971988
0.99715822
0.99711528
0.99706988
0.99702195
0.99697138
0.99691801
0.99686153
0.99680178
0.99673867
0.99667229
0.99660316
0.99653115
0.99645467
0.99637258
0.99628326
0.99619302
0.99610349
0.99600956
0.9959026
0.99577727
0.99566896
0.995558
0.99544303
0.99532376
0.99520002
0.99507166
0.99493855
0.99480056
0.99465755
0.99450935
0.99435579
0.99419664
0.99403162
0.99386036
0.99368236
0.99349695
0.99330319
0.99309975
0.9928848
0.99265584
0.99240957
0.99214197
0.99184884
0.99152721
0.99117848
0.99784529
0.99812826
0.99840762
0.99862737
0.99877842
0.99886868
0.99891418
0.99893235
0.99893733
0.99893787
0.99894182
0.99894862
0.99895722
0.99896678
0.9989766
0.99898607
0.99899463
0.99900173
0.99900669
0.9990087
0.99900672
0.99899934
0.99898468
0.99896023
0.99892275
0.99886809
0.99879126
0.99868668
0.99854884
0.99837377
0.99816114
0.99791705
0.99765614
0.99740145
0.99717977
0.99701292
0.99690869
0.99685768
0.99683951
0.99683466
0.9968341
0.99683432
0.99683707
0.99684307
0.996852
0.99686353
0.99687735
0.99689319
0.9969108
0.99692993
0.9969504
0.996972
0.99699457
0.99701795
0.99704203
0.99706666
0.99709175
0.9971172
0.99714293
0.99716887
0.99719493
0.99722108
0.99724725
0.9972734
0.99729948
0.99732547
0.99735132
0.997377
0.9974025
0.99742779
0.99745283
0.99747763
0.99750215
0.99752639
0.99755032
0.99757394
0.99759724
0.99762019
0.9976428
0.99766506
0.99768695
0.99770847
0.9977296
0.99775036
0.99777072
0.99779068
0.99781024
0.99782939
0.99784812
0.99786643
0.99788432
0.99790178
0.99791881
0.99793539
0.99795154
0.99796723
0.99798248
0.99799727
0.99801159
0.99802545
0.99803884
0.99805175
0.99806418
0.99807613
0.99808758
0.99809853
0.99810899
0.99811893
0.99812836
0.99813726
0.99814563
0.99815347
0.99816076
0.9981675
0.99817367
0.99817928
0.9981843
0.99818874
0.99819257
0.99819579
0.99819839
0.99820034
0.99820165
0.99820164
0.99820039
0.99819843
0.99819576
0.99819234
0.99818816
0.99818318
0.99817738
0.99817071
0.99816315
0.99815465
0.99814515
0.99813462
0.998123
0.99811023
0.99809624
0.99808097
0.99806434
0.99804627
0.99802669
0.9980055
0.9979826
0.99795789
0.99793126
0.9979026
0.99787179
0.9978387
0.99780322
0.9977652
0.99772451
0.99768098
0.99763437
0.99758444
0.99753099
0.99747384
0.99741293
0.99734843
0.99728098
0.99720892
0.99713157
0.99704794
0.9969566
0.99686124
0.99676613
0.99666613
0.99655955
0.99642987
0.99629769
0.99617153
0.99604051
0.99590349
0.99576005
0.99561
0.99545312
0.99528919
0.99511802
0.99493941
0.99475315
0.99455904
0.99435686
0.99414636
0.9939273
0.99369937
0.99346222
0.99321544
0.99295848
0.99269066
0.99241108
0.99211852
0.99181133
0.99148735
0.9911437
0.99077678
0.99038239
0.98995646
0.98949655
0.98900418
0.99796043
0.99825694
0.99852802
0.99872148
0.99883662
0.99888968
0.99890323
0.99889878
0.99889218
0.99889391
0.99890046
0.99891015
0.99892191
0.9989349
0.99894851
0.99896231
0.99897599
0.99898934
0.99900221
0.99901449
0.99902609
0.99903692
0.99904685
0.99905565
0.99906296
0.99906806
0.99906963
0.99906515
0.99905011
0.99901671
0.99895276
0.99884153
0.99866464
0.99840989
0.99808285
0.99771627
0.99736806
0.99710393
0.99697064
0.99695932
0.99695718
0.99696156
0.99697047
0.99698327
0.99699945
0.99701853
0.99704012
0.99706386
0.99708944
0.99711657
0.997145
0.99717452
0.99720492
0.99723603
0.9972677
0.99729978
0.99733215
0.99736472
0.99739738
0.99743005
0.99746266
0.99749515
0.99752745
0.99755952
0.99759131
0.99762278
0.99765391
0.99768465
0.99771499
0.99774489
0.99777434
0.99780332
0.99783182
0.99785982
0.9978873
0.99791426
0.99794069
0.99796658
0.99799193
0.99801672
0.99804096
0.99806463
0.99808774
0.99811028
0.99813226
0.99815366
0.9981745
0.99819476
0.99821445
0.99823356
0.99825211
0.99827008
0.99828748
0.99830431
0.99832057
0.99833627
0.99835139
0.99836596
0.99837995
0.99839339
0.99840626
0.99841857
0.99843032
0.99844151
0.99845214
0.99846221
0.99847172
0.99848067
0.99848906
0.99849689
0.99850415
0.99851085
0.99851697
0.99852253
0.9985275
0.9985319
0.9985357
0.99853891
0.99854152
0.99854351
0.99854488
0.99854523
0.99854447
0.99854322
0.99854148
0.99853923
0.99853644
0.99853307
0.9985291
0.99852449
0.99851919
0.99851315
0.99850633
0.99849865
0.99849004
0.99848045
0.99846978
0.99845796
0.99844487
0.99843043
0.99841451
0.998397
0.99837777
0.99835668
0.99833358
0.99830831
0.99828069
0.9982505
0.99821754
0.99818157
0.9981424
0.99809983
0.99805379
0.99800446
0.9979512
0.99789341
0.99783053
0.99776175
0.99768589
0.99760199
0.99751902
0.99743042
0.99733558
0.99723329
0.99711222
0.9969799
0.9968535
0.99672047
0.99657962
0.99643046
0.99627266
0.99610588
0.99592981
0.99574411
0.99554846
0.99534254
0.99512604
0.99489863
0.99466
0.99440981
0.99414775
0.99387347
0.99358663
0.99328685
0.99297373
0.99264683
0.99230565
0.99194959
0.99157792
0.99118975
0.99078392
0.99035895
0.98991292
0.98944334
0.98894708
0.98842034
0.98785885
0.98725863
0.98661763
0.98593702
0.99805055
0.99834059
0.99859069
0.99875884
0.99885277
0.99889276
0.99890107
0.99889402
0.99886557
0.99886815
0.99887651
0.99888809
0.99890161
0.99891623
0.99893131
0.99894645
0.99896134
0.99897582
0.99898974
0.99900306
0.9990157
0.99902764
0.99903884
0.99904927
0.9990589
0.99906768
0.99907557
0.99908252
0.99908847
0.99909333
0.99909701
0.99909938
0.99910011
0.99909856
0.99909365
0.99908315
0.99906107
0.99902315
0.99883641
0.99745646
0.9970276
0.9970219
0.99703473
0.99705536
0.99708139
0.99711129
0.99714384
0.99717816
0.99721392
0.99725083
0.99728864
0.99732715
0.99736615
0.99740548
0.99744498
0.99748452
0.99752398
0.99756326
0.99760227
0.99764094
0.99767918
0.99771695
0.99775419
0.99779085
0.9978269
0.9978623
0.99789702
0.99793103
0.99796433
0.99799688
0.99802868
0.9980597
0.99808996
0.99811942
0.9981481
0.99817599
0.99820308
0.99822938
0.99825488
0.99827959
0.99830352
0.99832666
0.99834902
0.99837061
0.99839144
0.99841151
0.99843084
0.99844942
0.99846728
0.99848442
0.99850084
0.99851657
0.99853162
0.99854599
0.99855969
0.99857275
0.99858516
0.99859695
0.99860813
0.9986187
0.99862869
0.99863809
0.99864693
0.99865522
0.99866297
0.99867019
0.99867688
0.99868307
0.99868876
0.99869396
0.99869868
0.99870292
0.9987067
0.99871001
0.99871286
0.99871526
0.99871721
0.99871871
0.99871975
0.9987202
0.99872002
0.99871961
0.99871902
0.99871822
0.99871719
0.99871591
0.99871433
0.99871243
0.99871016
0.99870746
0.99870428
0.99870056
0.99869621
0.99869115
0.9986853
0.99867854
0.99867076
0.99866184
0.99865164
0.99864
0.99862676
0.99861173
0.99859472
0.99857552
0.99855395
0.99852985
0.99850303
0.99847306
0.99843956
0.99840211
0.99836014
0.99831286
0.99825917
0.99820268
0.99814188
0.99807553
0.99800307
0.99792384
0.99783511
0.99772094
0.99761652
0.99750421
0.99738317
0.99725284
0.99711275
0.99696239
0.9968013
0.99662899
0.99644495
0.99624868
0.99603969
0.99581748
0.99558155
0.99533139
0.99506653
0.99478646
0.99449069
0.99417873
0.99385011
0.99350431
0.99314087
0.99275926
0.99235899
0.99193951
0.99150025
0.9910406
0.99055986
0.99005725
0.98953184
0.98898251
0.98840786
0.98780617
0.98717528
0.98651247
0.98581443
0.98507727
0.98429673
0.98346896
0.98259221
0.98166706
0.99811168
0.9983761
0.9985946
0.99875869
0.99882691
0.99885429
0.99886032
0.99885775
0.99886082
0.99886925
0.99888143
0.99889589
0.99891151
0.99892755
0.99894354
0.99895917
0.99897427
0.99898876
0.99900257
0.9990157
0.99902811
0.99903978
0.9990507
0.99906082
0.9990701
0.99907849
0.99908593
0.99909237
0.99909775
0.99910201
0.99910526
0.9991076
0.9991091
0.99910974
0.99910977
0.99910977
0.9991097
0.99910633
0.99908317
0.9988644
0.99851075
0.99812079
0.9977428
0.99742646
0.99721447
0.99713844
0.99717792
0.99722686
0.9972765
0.9973264
0.99737624
0.99742578
0.99747494
0.99752362
0.99757175
0.99761923
0.99766598
0.99771194
0.99775705
0.99780125
0.99784449
0.99788675
0.99792797
0.99796813
0.99800722
0.99804521
0.99808209
0.99811784
0.99815246
0.99818595
0.9982183
0.99824952
0.99827961
0.99830857
0.99833642
0.99836316
0.99838881
0.99841337
0.99843687
0.99845932
0.99848073
0.99850113
0.99852053
0.99853896
0.99855643
0.99857297
0.99858861
0.99860336
0.99861724
0.9986303
0.99864255
0.99865401
0.99866472
0.9986747
0.99868397
0.99869258
0.99870053
0.99870787
0.99871462
0.9987208
0.99872645
0.9987316
0.99873626
0.99874047
0.99874425
0.99874764
0.99875064
0.9987533
0.99875563
0.99875766
0.99875941
0.99876089
0.99876213
0.99876314
0.99876394
0.99876454
0.99876496
0.99876531
0.9987656
0.99876599
0.99876648
0.99876706
0.99876772
0.99876844
0.9987692
0.99876997
0.99877071
0.99877138
0.99877192
0.99877228
0.99877239
0.99877216
0.99877149
0.99877028
0.99876839
0.99876567
0.99876197
0.99875712
0.99875094
0.99874323
0.99873372
0.99872213
0.99870811
0.99869125
0.998671
0.99864738
0.99862094
0.99859064
0.99855603
0.99851667
0.99847207
0.99842143
0.99835474
0.99828634
0.99821306
0.99813208
0.9980426
0.99794398
0.99783558
0.99771674
0.99758681
0.99744513
0.99729099
0.99712371
0.99694257
0.99674685
0.99653583
0.99630878
0.99606496
0.99580363
0.99552408
0.99522556
0.99490735
0.99456873
0.99420897
0.99382737
0.99342323
0.99299585
0.99254454
0.99206862
0.99156739
0.99104017
0.99048626
0.98990493
0.98929544
0.98865699
0.98798869
0.98728955
0.98655847
0.98579409
0.98499485
0.98415881
0.98328363
0.98236647
0.98140395
0.98039221
0.97932714
0.97820508
0.97702455
0.97578544
0.99813604
0.99837615
0.99855177
0.99864433
0.99870016
0.99875083
0.9987968
0.99883949
0.99887713
0.99890957
0.99893722
0.99896091
0.99898146
0.99899951
0.99901559
0.99903011
0.99904337
0.99905563
0.99906704
0.9990777
0.99908766
0.99909694
0.9991055
0.99911329
0.99912022
0.9991262
0.9991311
0.99913477
0.99913705
0.9991377
0.99913783
0.99913796
0.99913811
0.99913826
0.99913822
0.99913764
0.99913649
0.99913454
0.9991298
0.99909759
0.99900891
0.99884548
0.99860179
0.99829243
0.99795581
0.99765304
0.99744357
0.99732911
0.99729602
0.99732705
0.99739943
0.99746397
0.99752648
0.99758706
0.99764579
0.99770267
0.99775777
0.99781114
0.99786277
0.99791269
0.99796091
0.99800742
0.99805225
0.99809539
0.99813686
0.99817667
0.99821483
0.99825137
0.99828629
0.99831961
0.99835137
0.99838158
0.99841026
0.99843746
0.99846318
0.99848748
0.99851036
0.99853188
0.99855207
0.99857095
0.99858858
0.99860498
0.99862019
0.99863426
0.99864723
0.99865913
0.99867002
0.99867993
0.9986889
0.99869699
0.99870423
0.99871067
0.99871635
0.99872133
0.99872563
0.99872932
0.99873244
0.99873502
0.99873712
0.99873877
0.99874003
0.99874093
0.99874152
0.99874184
0.99874194
0.99874184
0.99874159
0.99874123
0.99874079
0.99874031
0.99873982
0.99873936
0.99873894
0.99873859
0.99873842
0.99873862
0.99873922
0.9987401
0.99874125
0.9987427
0.99874445
0.9987465
0.99874884
0.99875147
0.99875436
0.9987575
0.99876082
0.99876431
0.99876792
0.99877157
0.99877518
0.99877866
0.99878189
0.99878471
0.99878697
0.99878846
0.99878885
0.99878785
0.99878536
0.99878109
0.99877473
0.99876593
0.99875431
0.99873933
0.99871903
0.99869256
0.99866343
0.99862906
0.99858875
0.99854186
0.99848774
0.99842569
0.99835499
0.99827488
0.99818457
0.99808326
0.99797009
0.99784418
0.99770463
0.99755051
0.99738087
0.99719475
0.99699117
0.99676911
0.99652757
0.99626553
0.99598196
0.99567584
0.99534613
0.99499181
0.99461186
0.99420528
0.99377105
0.99330819
0.99281573
0.99229271
0.99173818
0.99115124
0.99053096
0.98987645
0.98918684
0.98846123
0.98769874
0.98689849
0.98605955
0.98518095
0.98426165
0.98330051
0.98229626
0.98124741
0.98015225
0.97900874
0.97781448
0.97656663
0.9752619
0.97389661
0.97246696
0.97096957
0.96940335
0.96776747
0.99813718
0.9985301
0.99883462
0.99901394
0.99912907
0.99920148
0.99924789
0.99927708
0.99929422
0.99930241
0.99930365
0.99930369
0.99930373
0.99930378
0.99930383
0.99930389
0.99930395
0.99930401
0.99930408
0.99930416
0.99930424
0.99930432
0.99930441
0.9993045
0.99930459
0.99930469
0.9993048
0.9993049
0.99930501
0.99930511
0.99930431
0.99930211
0.99929836
0.99929299
0.99928598
0.99927735
0.99926718
0.99925557
0.99924249
0.99922477
0.99919407
0.99913702
0.99903701
0.99887904
0.99865744
0.99838525
0.9980973
0.99783205
0.99762261
0.99749154
0.99744522
0.99745692
0.99750549
0.99757386
0.99766121
0.9977308
0.99779685
0.99785967
0.99791946
0.99797636
0.99803048
0.99808195
0.99813086
0.99817729
0.99822131
0.99826298
0.99830238
0.99833955
0.99837456
0.99840746
0.99843832
0.99846719
0.99849414
0.99851921
0.99854247
0.99856398
0.9985838
0.998602
0.99861862
0.99863374
0.99864742
0.99865972
0.99867071
0.99868045
0.99868901
0.99869644
0.99870283
0.99870822
0.99871269
0.9987163
0.99871912
0.9987212
0.99872262
0.99872343
0.99872369
0.99872347
0.99872283
0.99872182
0.99872051
0.99871894
0.99871717
0.99871525
0.99871324
0.99871118
0.99870912
0.99870711
0.99870519
0.99870339
0.99870177
0.99870035
0.99869917
0.99869826
0.99869776
0.99869777
0.99869825
0.99869896
0.99869995
0.99870126
0.99870292
0.99870498
0.99870748
0.99871047
0.99871398
0.99871804
0.99872269
0.99872795
0.99873337
0.9987392
0.99874537
0.99875178
0.99875832
0.99876487
0.99877125
0.99877728
0.99878274
0.99878759
0.99879106
0.99879242
0.99879175
0.99878866
0.99878269
0.99877333
0.99876003
0.99874219
0.99871917
0.99869027
0.99865476
0.99861185
0.9985607
0.99850042
0.99843008
0.9983487
0.99825524
0.99814864
0.99802778
0.9978915
0.9977386
0.99756786
0.99737801
0.99716775
0.99693577
0.99668073
0.99640127
0.99609601
0.99576358
0.9954026
0.99501166
0.99458941
0.99413445
0.99364544
0.99312103
0.99255991
0.99196076
0.99132234
0.9906434
0.98992273
0.98915915
0.98835155
0.98749879
0.98659982
0.98565357
0.98465903
0.98361517
0.98252098
0.98137543
0.98017746
0.97892593
0.97761966
0.97625729
0.97483731
0.97335802
0.97181739
0.97021314
0.96854257
0.9668027
0.96499025
0.96310187
0.96113468
0.95908811
0.95696084
0.99955214
0.99973248
0.99979426
0.99982509
0.99984181
0.99985051
0.99985398
0.99985394
0.99985389
0.99985384
0.99985379
0.99985071
0.99984458
0.99983614
0.99982606
0.99981491
0.99980315
0.99979112
0.9997791
0.99976723
0.99975561
0.99974425
0.99973309
0.99972202
0.99971091
0.99969957
0.99968781
0.99967545
0.99966227
0.99964812
0.99963282
0.9996162
0.99959812
0.99957848
0.99955718
0.99953421
0.99950956
0.99948329
0.99945548
0.99942585
0.99939283
0.99935252
0.99929768
0.99921761
0.99909997
0.99893544
0.99872419
0.99847812
0.99821993
0.99797928
0.99778594
0.99765524
0.99758993
0.99758257
0.9976254
0.99768932
0.99776271
0.99783802
0.99791456
0.99798955
0.99805204
0.9981105
0.9981652
0.99821636
0.99826417
0.99830878
0.99835033
0.99838896
0.9984248
0.99845796
0.99848856
0.9985167
0.99854249
0.99856603
0.99858742
0.99860677
0.99862416
0.9986397
0.99865349
0.99866562
0.99867618
0.99868528
0.998693
0.99869943
0.99870468
0.99870884
0.99871198
0.99871421
0.99871561
0.99871626
0.99871626
0.99871568
0.9987146
0.9987131
0.99871126
0.99870914
0.99870681
0.99870435
0.99870181
0.99869924
0.9986967
0.99869423
0.99869188
0.99868969
0.99868768
0.99868589
0.99868434
0.99868304
0.99868201
0.99868125
0.99868065
0.99868026
0.99867994
0.99867966
0.99867948
0.99867948
0.99867976
0.9986804
0.99868149
0.99868313
0.99868539
0.99868834
0.99869204
0.99869654
0.99870189
0.99870961
0.99871669
0.99872439
0.99873261
0.9987412
0.99874999
0.99875875
0.99876722
0.9987751
0.99878202
0.9987876
0.99879137
0.99879284
0.99879144
0.99878657
0.99877755
0.99876363
0.99874404
0.9987179
0.9986843
0.99864223
0.99859066
0.99852844
0.99845441
0.9983673
0.9982658
0.99814854
0.99801407
0.99786091
0.99768752
0.99749229
0.9972736
0.99702975
0.99675904
0.99645972
0.99613002
0.99576816
0.99537233
0.99494074
0.99447157
0.99396304
0.99341337
0.99282079
0.99218357
0.99150002
0.99076846
0.98998729
0.98915493
0.98826986
0.98733063
0.98633582
0.9852841
0.98417418
0.98300483
0.98177489
0.98048322
0.97912876
0.97771047
0.97622732
0.97467831
0.97306241
0.97137856
0.96962564
0.9678024
0.96590749
0.96393937
0.96189627
0.95977619
0.95757687
0.95529582
0.95293039
0.95047797
0.94793636
0.94530568
0.94258446
0.99999998
0.99999997
0.99999996
0.99999995
0.99999994
0.99999993
0.99999992
0.99999969
0.9999973
0.99999323
0.99998794
0.99998168
0.99997459
0.9999668
0.9999584
0.9999495
0.99994021
0.99993063
0.99992085
0.99991097
0.99990104
0.99989111
0.99988117
0.99987123
0.99986123
0.99985111
0.99984078
0.99983011
0.99981898
0.99980722
0.99979468
0.99978116
0.99976646
0.99975036
0.99973266
0.99971314
0.9996916
0.99966786
0.99964178
0.9996132
0.99958177
0.99954657
0.99950545
0.99945432
0.9993867
0.99929428
0.99916908
0.99900648
0.99880826
0.99858461
0.998354
0.99813805
0.99795673
0.99782421
0.99774884
0.99772482
0.99774175
0.99778757
0.99785269
0.9979286
0.99800295
0.99807358
0.99813953
0.99820051
0.99825663
0.99831313
0.99835962
0.99840179
0.99844036
0.99847554
0.99850752
0.9985365
0.99856264
0.99858611
0.99860706
0.99862565
0.99864201
0.99865631
0.99866866
0.99867922
0.9986881
0.99869545
0.99870139
0.99870603
0.99870951
0.99871194
0.99871343
0.99871409
0.99871404
0.99871338
0.9987122
0.99871061
0.9987087
0.99870656
0.99870427
0.99870191
0.99869956
0.99869729
0.99869516
0.99869324
0.99869158
0.99869023
0.99868923
0.9986886
0.99868835
0.99868845
0.99868886
0.99868912
0.99868891
0.99868795
0.99868662
0.99868466
0.99868262
0.99868084
0.99867924
0.99867795
0.99867713
0.99867691
0.99867745
0.99867887
0.99868126
0.99868472
0.99868929
0.99869499
0.99870179
0.99870964
0.99871843
0.998728
0.99873816
0.99874866
0.99875918
0.99876939
0.99877884
0.99878707
0.99879354
0.99879762
0.99879864
0.99879585
0.99878843
0.99877545
0.99875594
0.99872884
0.99869299
0.99864716
0.99859002
0.99852017
0.99843613
0.9983363
0.99821904
0.99808261
0.99792519
0.9977449
0.99753976
0.99730777
0.99704683
0.99675483
0.99642957
0.99606886
0.99567043
0.99523203
0.99475138
0.9942262
0.99365421
0.99303316
0.99236081
0.99163495
0.99085343
0.99001414
0.98911501
0.98815408
0.98712941
0.98603919
0.98488165
0.98365514
0.98235809
0.98098902
0.97954656
0.97802943
0.97643643
0.97476646
0.97301852
0.97119165
0.96928498
0.96729769
0.96522899
0.96307809
0.96084422
0.95852654
0.95612418
0.95363615
0.95106134
0.94839848
0.94564616
0.94280278
0.93986663
0.93683594
0.93370911
0.93048485
0.92716429
0.92374528
1
1
1
1
1
1
1
0.99999998
0.99999983
0.99999939
0.99999852
0.99999712
0.99999513
0.99999251
0.99998925
0.99998538
0.99998093
0.99997596
0.99997054
0.99996472
0.99995856
0.99995211
0.99994542
0.99993849
0.99993135
0.99992397
0.99991634
0.99990841
0.99990012
0.99989139
0.99988212
0.99987219
0.99986146
0.99984978
0.99983696
0.9998228
0.99980708
0.99978955
0.99976998
0.99974809
0.9997236
0.99969609
0.99966483
0.99962839
0.99958425
0.99952839
0.99945541
0.99935933
0.99923514
0.99908086
0.99889956
0.99869992
0.99849525
0.99830123
0.99813366
0.9980036
0.99791632
0.99787144
0.99786477
0.99788953
0.99793541
0.99799389
0.99805839
0.99812427
0.99818849
0.99825178
0.99830907
0.99836061
0.99840698
0.99844867
0.99848608
0.99851957
0.99854944
0.99857597
0.9985994
0.99861998
0.99863793
0.99865344
0.99866672
0.99867796
0.99868732
0.99869498
0.99870111
0.99870587
0.99870939
0.99871184
0.99871334
0.99871402
0.99871402
0.99871344
0.9987124
0.99871101
0.99870936
0.99870755
0.99870564
0.99870373
0.99870186
0.99870012
0.99869853
0.99869714
0.99869598
0.99869506
0.99869439
0.99869412
0.99869413
0.99869413
0.99869377
0.9986929
0.99869148
0.99868956
0.99868725
0.99868471
0.99868213
0.99867974
0.99867777
0.99867644
0.99867597
0.99867656
0.99867836
0.9986815
0.99868607
0.9986921
0.99869958
0.99870844
0.99871855
0.99872972
0.99874171
0.99875421
0.99876684
0.99877914
0.99879059
0.9988006
0.99880847
0.99881346
0.99881472
0.99881129
0.99880215
0.99878617
0.99876212
0.99872865
0.99868433
0.99862762
0.99855685
0.99847026
0.99836597
0.99824202
0.99809631
0.99792665
0.99773078
0.9975063
0.99725076
0.99696163
0.99663629
0.99627207
0.99586625
0.99541607
0.99491873
0.99437142
0.99377131
0.99311559
0.99240145
0.99162614
0.99078691
0.9898811
0.98890609
0.98785935
0.98673845
0.98554102
0.98426485
0.98290779
0.98146786
0.97994318
0.97833202
0.97663279
0.97484402
0.97296442
0.9709928
0.96892815
0.96676956
0.96451627
0.96216765
0.95972316
0.95718236
0.95454491
0.95181051
0.94897894
0.94604997
0.94302337
0.9398989
0.93667625
0.93335503
0.92993479
0.92641497
0.92279492
0.91907401
0.9152516
0.91132731
0.90730104
0.90317509
0.89894735
1
1
1
1
1
1
1
1
0.99999998
0.99999992
0.99999976
0.99999945
0.99999892
0.99999812
0.99999698
0.99999549
0.9999936
0.99999133
0.99998867
0.99998563
0.99998224
0.99997853
0.9999745
0.99997019
0.99996559
0.99996073
0.99995558
0.99995013
0.99994436
0.99993823
0.99993169
0.99992467
0.9999171
0.99990887
0.99989987
0.99988996
0.99987898
0.99986674
0.99985304
0.99983763
0.99982026
0.9998006
0.99977825
0.9997526
0.99972264
0.99968668
0.99964216
0.99958559
0.99951278
0.99941962
0.99930328
0.99916338
0.99900296
0.99882865
0.9986502
0.99847878
0.99832498
0.99819722
0.99810087
0.99803795
0.99800669
0.99800283
0.99802087
0.99805506
0.99810005
0.99815217
0.99820701
0.99826154
0.99831388
0.99836296
0.99840821
0.99844943
0.99848663
0.99851992
0.99854951
0.99857564
0.99859857
0.99861856
0.99863585
0.9986507
0.99866332
0.99867394
0.99868278