/*--------------------------------*- C++ -*----------------------------------*\
| =========                 |                                                 |
| \\      /  F ield         | OpenFOAM: The Open Source CFD Toolbox           |
|  \\    /   O peration     | Version:  2406                                  |
|   \\  /    A nd           | Website:  www.openfoam.com                      |
|    \\/     M anipulation  |                                                 |
\*---------------------------------------------------------------------------*/
FoamFile
{
    version     2.0;
    format      ascii;
    arch        "LSB;label=32;scalar=64";
    class       volScalarField;
    location    "937";
    object      p;
}
// * * * * * * * * * * * * * * * * * * * * * * * * * * * * * * * * * * * * * //

dimensions      [0 2 -2 0 0 0 0];

internalField   nonuniform List<scalar> 
9800
(
-7.6288669e-05
-7.7326955e-05
-7.0833613e-05
-5.6254465e-05
-3.6568659e-05
-1.4388178e-05
8.2824308e-06
3.0010791e-05
4.988691e-05
6.7421915e-05
8.2432836e-05
9.4943479e-05
0.00010510397
0.00011313467
0.00011928768
0.0001238202
0.0001269789
0.00012899141
0.00013006222
0.00013037144
0.00013007528
0.00012930754
0.00012818158
0.0001267924
0.00012521887
0.00012352578
0.00012176573
0.00011998089
0.00011820457
0.0001164626
0.00011477461
0.00011315503
0.00011161401
0.00011015822
0.0001087915
0.00010751541
0.00010632973
0.00010523281
0.00010422196
0.00010329367
0.00010244385
0.00010166803
0.00010096146
0.0001003193
9.9736648e-05
9.9208645e-05
9.873053e-05
9.829768e-05
9.7905642e-05
9.7550157e-05
9.7227171e-05
9.6932849e-05
9.6663577e-05
9.6415961e-05
9.6186828e-05
9.5973217e-05
9.5772377e-05
9.5581755e-05
9.5398988e-05
9.5221899e-05
9.5048482e-05
9.4876892e-05
9.4705442e-05
9.4532587e-05
9.4356919e-05
9.4177154e-05
9.3992131e-05
9.3800795e-05
9.3602197e-05
9.3395483e-05
9.3179887e-05
9.2954727e-05
9.2719397e-05
9.2473363e-05
9.2216157e-05
9.194737e-05
9.1666653e-05
9.1373707e-05
9.1068282e-05
9.0750175e-05
9.0419222e-05
9.0075298e-05
8.9718313e-05
8.9348213e-05
8.8964969e-05
8.8568584e-05
8.8159084e-05
8.773652e-05
8.7300964e-05
8.6852508e-05
8.6391262e-05
8.5917352e-05
8.543092e-05
8.4932122e-05
8.4421125e-05
8.3898107e-05
8.3363258e-05
8.2816775e-05
8.2258864e-05
8.1689739e-05
8.1109618e-05
8.0518725e-05
7.9917289e-05
7.9305544e-05
7.8683724e-05
7.8052069e-05
7.7410819e-05
7.6760215e-05
7.61005e-05
7.5431918e-05
7.475471e-05
7.406912e-05
7.3375389e-05
7.2673757e-05
7.1964463e-05
7.1247743e-05
7.0523833e-05
6.9792964e-05
6.9055365e-05
6.8311264e-05
6.7560883e-05
6.6804442e-05
6.6042157e-05
6.5274241e-05
6.4500904e-05
6.3722349e-05
6.2938779e-05
6.2150388e-05
6.1357371e-05
6.0559915e-05
5.9758203e-05
5.8952415e-05
5.8142725e-05
5.7329305e-05
5.6512319e-05
5.5691929e-05
5.4868291e-05
5.4041557e-05
5.3211875e-05
5.2379387e-05
5.1544232e-05
5.0706545e-05
4.9866453e-05
4.9024083e-05
4.8179556e-05
4.7332987e-05
4.6484488e-05
4.5634169e-05
4.4782132e-05
4.3928478e-05
4.3073303e-05
4.2216698e-05
4.1358751e-05
4.0499548e-05
3.9639168e-05
3.877769e-05
3.7915187e-05
3.7051728e-05
3.6187382e-05
3.5322212e-05
3.4456278e-05
3.3589639e-05
3.2722348e-05
3.1854458e-05
3.0986018e-05
3.0117074e-05
2.9247669e-05
2.8377845e-05
2.750764e-05
2.6637092e-05
2.5766232e-05
2.4895095e-05
2.4023709e-05
2.3152101e-05
2.2280299e-05
2.1408324e-05
2.05362e-05
1.9663947e-05
1.8791582e-05
1.7919123e-05
1.7046585e-05
1.6173981e-05
1.5301324e-05
1.4428624e-05
1.3555892e-05
1.2683133e-05
1.1810356e-05
1.0937565e-05
1.0064762e-05
9.1919484e-06
8.3191208e-06
7.4462707e-06
6.5733811e-06
5.70042e-06
4.8273305e-06
3.953998e-06
3.0801884e-06
2.2056818e-06
1.3305939e-06
4.5000452e-07
-7.4443386e-05
-7.5503986e-05
-6.9414597e-05
-5.5717138e-05
-3.7292498e-05
-1.640104e-05
5.1901584e-06
2.6139334e-05
4.5538615e-05
6.2858524e-05
7.7860814e-05
9.051434e-05
0.00010092319
0.0001092722
0.0001157846
0.00012069571
0.00012423627
0.00012662263
0.00012805155
0.00012869813
0.00012871557
0.00012823611
0.00012737258
0.00012622026
0.00012485877
0.00012335401
0.00012175996
0.00012012027
0.0001184698
0.00011683598
0.00011523998
0.00011369773
0.00011222081
0.00011081725
0.00010949215
0.00010824825
0.0001070864
0.00010600596
0.00010500514
0.00010408125
0.00010323095
0.00010245042
0.00010173556
0.00010108202
0.0001004854
9.9941264e-05
9.9445238e-05
9.8993032e-05
9.8580489e-05
9.820361e-05
9.7858571e-05
9.7541737e-05
9.7249669e-05
9.6979124e-05
9.6727061e-05
9.649063e-05
9.6267178e-05
9.6054234e-05
9.5849505e-05
9.5650871e-05
9.5456374e-05
9.5264212e-05
9.5072725e-05
9.4880396e-05
9.4685835e-05
9.4487773e-05
9.4285056e-05
9.4076637e-05
9.3861568e-05
9.3638993e-05
9.3408144e-05
9.3168332e-05
9.2918945e-05
9.2659439e-05
9.2389334e-05
9.2108213e-05
9.1815711e-05
9.1511518e-05
9.1195371e-05
9.086705e-05
9.0526378e-05
9.0173215e-05
8.9807458e-05
8.9429034e-05
8.9037903e-05
8.8634051e-05
8.8217489e-05
8.7788255e-05
8.7346405e-05
8.6892017e-05
8.6425187e-05
8.5946028e-05
8.5454668e-05
8.4951249e-05
8.4435926e-05
8.3908866e-05
8.3370244e-05
8.2820247e-05
8.225907e-05
8.1686913e-05
8.1103985e-05
8.05105e-05
7.9906677e-05
7.9292738e-05
7.866891e-05
7.8035423e-05
7.7392507e-05
7.6740396e-05
7.6079324e-05
7.5409526e-05
7.4731239e-05
7.4044695e-05
7.3350131e-05
7.2647779e-05
7.1937872e-05
7.122064e-05
7.0496312e-05
6.9765113e-05
6.9027268e-05
6.8282997e-05
6.753252e-05
6.6776049e-05
6.6013799e-05
6.5245976e-05
6.4472785e-05
6.3694427e-05
6.2911098e-05
6.2122993e-05
6.1330299e-05
6.0533201e-05
5.973188e-05
5.8926512e-05
5.8117269e-05
5.7304317e-05
5.6487821e-05
5.5667938e-05
5.4844823e-05
5.4018626e-05
5.3189492e-05
5.2357562e-05
5.1522972e-05
5.0685854e-05
4.9846337e-05
4.9004544e-05
4.8160593e-05
4.7314601e-05
4.6466678e-05
4.5616931e-05
4.4765463e-05
4.3912372e-05
4.3057754e-05
4.22017e-05
4.1344297e-05
4.0485628e-05
3.9625774e-05
3.8764812e-05
3.7902815e-05
3.7039852e-05
3.617599e-05
3.5311293e-05
3.444582e-05
3.357963e-05
3.2712777e-05
3.1845312e-05
3.0977283e-05
3.0108738e-05
2.923972e-05
2.8370269e-05
2.7500425e-05
2.6630223e-05
2.5759698e-05
2.4888882e-05
2.4017804e-05
2.3146491e-05
2.2274971e-05
2.1403265e-05
2.0531397e-05
1.9659387e-05
1.8787252e-05
1.791501e-05
1.7042676e-05
1.6170263e-05
1.5297783e-05
1.4425248e-05
1.3552664e-05
1.268004e-05
1.1807381e-05
1.0934691e-05
1.0061969e-05
9.1892149e-06
8.316421e-06
7.4435749e-06
6.5706544e-06
5.6976235e-06
4.8244247e-06
3.9509526e-06
3.0770157e-06
2.2025673e-06
1.3281867e-06
4.4924567e-07
-8.2609215e-05
-8.1979171e-05
-7.4298551e-05
-5.9450953e-05
-4.0483666e-05
-1.9443782e-05
2.1024979e-06
2.2947098e-05
4.2257357e-05
5.9539299e-05
7.4566928e-05
8.7310566e-05
9.7866932e-05
0.00010640861
0.00011314641
0.00011830422
0.00012210298
0.00012475095
0.00012643858
0.00012733613
0.0001275933
0.00012733987
0.0001266871
0.00012572932
0.0001245458
0.00012320244
0.00012175354
0.00012024333
0.00011870738
0.00011717396
0.00011566511
0.00011419772
0.0001127843
0.00011143383
0.00011015232
0.0001089434
0.00010780878
0.0001067486
0.00010576183
0.00010484646
0.0001039998
0.00010321864
0.00010249939
0.00010183822
0.00010123117
0.00010067422
0.00010016335
9.9694613e-05
9.9264139e-05
9.8868196e-05
9.8503197e-05
9.8165715e-05
9.7852496e-05
9.7560463e-05
9.7286714e-05
9.702853e-05
9.6783363e-05
9.6548838e-05
9.6322746e-05
9.6103036e-05
9.5887809e-05
9.5675314e-05
9.5463935e-05
9.5252187e-05
9.5038709e-05
9.4822255e-05
9.4601688e-05
9.4375973e-05
9.4144171e-05
9.3905432e-05
9.3658988e-05
9.3404152e-05
9.3140307e-05
9.2866904e-05
9.2583458e-05
9.2289543e-05
9.1984784e-05
9.1668862e-05
9.1341501e-05
9.1002471e-05
9.0651581e-05
9.0288679e-05
8.9913648e-05
8.9526401e-05
8.9126885e-05
8.8715072e-05
8.8290959e-05
8.785457e-05
8.7405948e-05
8.6945157e-05
8.647228e-05
8.5987415e-05
8.5490679e-05
8.4982201e-05
8.4462122e-05
8.3930596e-05
8.338779e-05
8.2833876e-05
8.2269037e-05
8.1693465e-05
8.1107356e-05
8.0510914e-05
7.9904348e-05
7.928787e-05
7.8661698e-05
7.8026051e-05
7.7381153e-05
7.6727227e-05
7.6064499e-05
7.5393198e-05
7.4713549e-05
7.4025781e-05
7.3330121e-05
7.2626796e-05
7.191603e-05
7.1198048e-05
7.0473073e-05
6.9741323e-05
6.9003018e-05
6.8258374e-05
6.7507602e-05
6.6750912e-05
6.5988513e-05
6.5220606e-05
6.4447392e-05
6.3669069e-05
6.2885827e-05
6.2097857e-05
6.1305344e-05
6.0508468e-05
5.9707407e-05
5.8902334e-05
5.8093416e-05
5.728082e-05
5.6464704e-05
5.5645226e-05
5.4822536e-05
5.3996782e-05
5.3168106e-05
5.2336649e-05
5.1502543e-05
5.066592e-05
4.9826905e-05
4.8985621e-05
4.8142184e-05
4.7296709e-05
4.6449304e-05
4.5600076e-05
4.4749126e-05
4.3896552e-05
4.3042447e-05
4.2186902e-05
4.1330004e-05
4.0471834e-05
3.9612473e-05
3.8751996e-05
3.7890476e-05
3.7027983e-05
3.6164581e-05
3.5300335e-05
3.4435304e-05
3.3569545e-05
3.2703112e-05
3.1836056e-05
3.0968426e-05
3.0100268e-05
2.9231625e-05
2.8362539e-05
2.7493047e-05
2.6623185e-05
2.5752989e-05
2.4882489e-05
2.4011715e-05
2.3140694e-05
2.2269453e-05
2.1398016e-05
2.0526403e-05
1.9654636e-05
1.8782732e-05
1.7910709e-05
1.7038581e-05
1.6166362e-05
1.5294063e-05
1.4421695e-05
1.3549265e-05
1.2676781e-05
1.1804247e-05
1.0931666e-05
1.0059036e-05
9.186355e-06
8.3136136e-06
7.4407981e-06
6.5678858e-06
5.6948428e-06
4.8216209e-06
3.9481378e-06
3.0742431e-06
2.1999967e-06
1.3264551e-06
4.494738e-07
-0.00010596771
-9.9784318e-05
-8.6888619e-05
-6.7887191e-05
-4.5970151e-05
-2.3020968e-05
-3.3774066e-07
2.1120018e-05
4.0716035e-05
5.8099439e-05
7.3141141e-05
8.5870214e-05
9.6416717e-05
0.00010496912
0.00011174376
0.00011696417
0.00012084792
0.00012359872
0.00012540222
0.00012642424
0.00012681053
0.00012668758
0.00012616392
0.00012533173
0.0001242686
0.0001230392
0.00012169697
0.00012028556
0.00011884021
0.00011738903
0.00011595411
0.0001145525
0.00011319699
0.0001118969
0.00011065864
0.00010948629
0.00010838199
0.00010734638
0.00010637887
0.00010547792
0.00010464129
0.00010386619
0.00010314944
0.00010248759
0.00010187705
0.00010131412
0.0001007951
0.00010031633
9.9874202e-05
9.9465224e-05
9.908603e-05
9.8733391e-05
9.8404235e-05
9.8095644e-05
9.7804865e-05
9.7529308e-05
9.7266541e-05
9.7014294e-05
9.6770447e-05
9.6533031e-05
9.6300217e-05
9.6070315e-05
9.584176e-05
9.5613116e-05
9.5383058e-05
9.5150375e-05
9.4913955e-05
9.4672786e-05
9.4425947e-05
9.4172601e-05
9.3911993e-05
9.3643441e-05
9.3366333e-05
9.3080123e-05
9.2784327e-05
9.2478514e-05
9.2162309e-05
9.1835386e-05
9.1497465e-05
9.1148307e-05
9.0787715e-05
9.0415527e-05
9.0031617e-05
8.9635889e-05
8.9228279e-05
8.8808749e-05
8.8377287e-05
8.7933903e-05
8.7478631e-05
8.7011525e-05
8.6532654e-05
8.6042109e-05
8.5539993e-05
8.5026424e-05
8.4501536e-05
8.3965471e-05
8.3418383e-05
8.2860437e-05
8.2291807e-05
8.1712672e-05
8.1123221e-05
8.0523648e-05
7.9914153e-05
7.929494e-05
7.8666218e-05
7.8028199e-05
7.7381096e-05
7.6725127e-05
7.6060511e-05
7.5387467e-05
7.4706216e-05
7.4016978e-05
7.3319975e-05
7.2615426e-05
7.190355e-05
7.1184566e-05
7.0458691e-05
6.9726139e-05
6.8987123e-05
6.8241853e-05
6.7490538e-05
6.6733382e-05
6.5970589e-05
6.5202356e-05
6.442888e-05
6.3650354e-05
6.2866966e-05
6.2078902e-05
6.1286343e-05
6.0489467e-05
5.9688447e-05
5.8883454e-05
5.8074654e-05
5.7262207e-05
5.6446272e-05
5.5627002e-05
5.4804545e-05
5.3979048e-05
5.315065e-05
5.2319488e-05
5.1485696e-05
5.06494e-05
4.9810726e-05
4.8969793e-05
4.8126718e-05
4.7281612e-05
4.6434584e-05
4.5585738e-05
4.4735173e-05
4.3882988e-05
4.3029273e-05
4.2174119e-05
4.1317611e-05
4.0459831e-05
3.9600858e-05
3.8740765e-05
3.7879627e-05
3.701751e-05
3.615448e-05
3.5290601e-05
3.442593e-05
3.3560526e-05
3.269444e-05
3.1827725e-05
3.0960428e-05
3.0092595e-05
2.9224269e-05
2.835549e-05
2.7486298e-05
2.6616728e-05
2.5746813e-05
2.4876586e-05
2.4006075e-05
2.3135309e-05
2.2264313e-05
2.1393111e-05
2.0521724e-05
1.9650172e-05
1.8778475e-05
1.7906648e-05
1.7034706e-05
1.6162663e-05
1.529053e-05
1.4418317e-05
1.3546032e-05
1.2673682e-05
1.180127e-05
1.09288e-05
1.005627e-05
9.1836763e-06
8.3110124e-06
7.438266e-06
6.565419e-06
5.6924467e-06
4.8193176e-06
3.9459796e-06
3.0723256e-06
2.1984926e-06
1.3258083e-06
4.5017208e-07
-0.00014728397
-0.00012858177
-0.00010503765
-7.8578108e-05
-5.1724263e-05
-2.5776766e-05
-1.4551547e-06
2.0777546e-05
4.0638004e-05
5.800856e-05
7.2909443e-05
8.545816e-05
9.5833004e-05
0.0001042456
0.00011092073
0.00011608229
0.00011994417
0.00012270467
0.00012454365
0.00012562136
0.00012607853
0.0001260373
0.00012560248
0.00012486317
0.00012389441
0.0001227588
0.00012150819
0.00012018494
0.00011882328
0.00011745061
0.00011608856
0.00011475385
0.00011345917
0.00011221382
0.00011102429
0.00010989484
0.00010882783
0.00010782416
0.00010688356
0.0001060048
0.00010518598
0.00010442463
0.0001037179
0.00010306269
0.0001024557
0.00010189355
0.00010137281
0.0001008901
0.00010044207
0.00010002546
9.963712e-05
9.9274039e-05
9.8933326e-05
9.8612238e-05
9.8308179e-05
9.8018701e-05
9.7741507e-05
9.747444e-05
9.7215489e-05
9.6962778e-05
9.6714566e-05
9.6469235e-05
9.622529e-05
9.5981352e-05
9.5736148e-05
9.5488511e-05
9.523737e-05
9.4981745e-05
9.4720742e-05
9.4453551e-05
9.4179433e-05
9.3897723e-05
9.3607823e-05
9.3309196e-05
9.3001363e-05
9.26839e-05
9.2356434e-05
9.2018639e-05
9.1670235e-05
9.131098e-05
9.0940673e-05
9.0559148e-05
9.0166274e-05
8.9761949e-05
8.9346101e-05
8.8918685e-05
8.8479679e-05
8.8029089e-05
8.7566936e-05
8.7093267e-05
8.6608143e-05
8.6111644e-05
8.5603864e-05
8.5084914e-05
8.4554916e-05
8.4014005e-05
8.3462325e-05
8.2900032e-05
8.232729e-05
8.1744271e-05
8.1151155e-05
8.0548128e-05
7.9935381e-05
7.931311e-05
7.8681516e-05
7.8040804e-05
7.739118e-05
7.6732854e-05
7.6066037e-05
7.5390943e-05
7.4707784e-05
7.4016777e-05
7.3318134e-05
7.261207e-05
7.1898798e-05
7.1178531e-05
7.045148e-05
6.9717855e-05
6.8977862e-05
6.8231708e-05
6.7479596e-05
6.6721726e-05
6.5958296e-05
6.5189501e-05
6.4415533e-05
6.363658e-05
6.2852827e-05
6.2064457e-05
6.1271646e-05
6.047457e-05
5.9673398e-05
5.8868298e-05
5.8059432e-05
5.7246958e-05
5.6431033e-05
5.5611806e-05
5.4789424e-05
5.3964029e-05
5.3135761e-05
5.2304753e-05
5.1471136e-05
5.0635036e-05
4.9796575e-05
4.8955873e-05
4.8113042e-05
4.7268194e-05
4.6421435e-05
4.5572868e-05
4.4722591e-05
4.3870701e-05
4.3017287e-05
4.216244e-05
4.1306241e-05
4.0448774e-05
3.9590114e-05
3.8730338e-05
3.7869514e-05
3.7007712e-05
3.6144996e-05
3.5281428e-05
3.4417066e-05
3.3551967e-05
3.2686183e-05
3.1819765e-05
3.095276e-05
3.0085214e-05
2.921717e-05
2.8348667e-05
2.7479745e-05
2.6610437e-05
2.5740779e-05
2.4870801e-05
2.4000533e-05
2.3130002e-05
2.2259233e-05
2.138825e-05
2.0517076e-05
1.9645728e-05
1.8774227e-05
1.7902588e-05
1.7030826e-05
1.6158954e-05
1.5286985e-05
1.4414926e-05
1.3542788e-05
1.2670576e-05
1.1798294e-05
1.0925946e-05
1.005353e-05
9.181046e-06
8.3084879e-06
7.4358479e-06
6.5631147e-06
5.6902744e-06
4.8173124e-06
3.9442024e-06
3.0708706e-06
2.1975007e-06
1.3255771e-06
4.5094719e-07
-0.00021847215
-0.00016973075
-0.00012500532
-8.7853147e-05
-5.5014211e-05
-2.5876516e-05
-1.9830434e-07
2.2383678e-05
4.2093708e-05
5.9093034e-05
7.3559123e-05
8.5692615e-05
9.5709768e-05
0.00010383508
0.00011029325
0.00011530193
0.00011906635
0.00012177575
0.00012360139
0.0001246959
0.00012519337
0.00012521029
0.00012484672
0.00012418775
0.00012330513
0.00012225888
0.00012109865
0.00011986488
0.00011859039
0.00011730151
0.00011601905
0.00011475916
0.0001135341
0.00011235295
0.00011122208
0.00011014574
0.00010912637
0.00010816501
0.00010726158
0.00010641509
0.00010562389
0.00010488579
0.00010419824
0.0001035584
0.00010296328
0.00010240978
0.00010189476
0.0001014151
0.0001009677
0.00010054956
0.00010015775
9.9789485e-05
9.944207e-05
9.9112953e-05
9.8799714e-05
9.8500068e-05
9.8211866e-05
9.7933088e-05
9.7661849e-05
9.7396385e-05
9.7135057e-05
9.6876343e-05
9.661883e-05
9.6361214e-05
9.6102289e-05
9.5840948e-05
9.5576172e-05
9.5307028e-05
9.5032663e-05
9.4752299e-05
9.4465231e-05
9.4170818e-05
9.3868485e-05
9.3557711e-05
9.3238035e-05
9.2909043e-05
9.2570373e-05
9.2221705e-05
9.1862763e-05
9.149331e-05
9.1113145e-05
9.0722104e-05
9.0320052e-05
8.9906885e-05
8.9482529e-05
8.9046933e-05
8.8600073e-05
8.8141945e-05
8.7672567e-05
8.7191978e-05
8.6700233e-05
8.6197404e-05
8.5683578e-05
8.5158858e-05
8.4623358e-05
8.4077204e-05
8.3520535e-05
8.2953497e-05
8.2376247e-05
8.178895e-05
8.1191776e-05
8.0584903e-05
7.9968517e-05
7.9342805e-05
7.8707961e-05
7.8064182e-05
7.7411668e-05
7.6750622e-05
7.6081248e-05
7.5403752e-05
7.4718343e-05
7.4025228e-05
7.3324615e-05
7.2616713e-05
7.1901729e-05
7.117987e-05
7.0451342e-05
6.9716349e-05
6.8975093e-05
6.8227776e-05
6.7474594e-05
6.6715746e-05
6.5951423e-05
6.5181816e-05
6.4407114e-05
6.36275e-05
6.2843155e-05
6.2054258e-05
6.1260982e-05
6.04635e-05
5.9661977e-05
5.8856577e-05
5.8047461e-05
5.7234783e-05
5.6418695e-05
5.5599346e-05
5.4776879e-05
5.3951435e-05
5.3123149e-05
5.2292154e-05
5.1458578e-05
5.0622545e-05
4.9784175e-05
4.8943584e-05
4.8100886e-05
4.7256188e-05
4.6409595e-05
4.556121e-05
4.4711128e-05
4.3859444e-05
4.3006248e-05
4.2151627e-05
4.1295664e-05
4.0438438e-05
3.9580026e-05
3.8720501e-05
3.7859934e-05
3.6998391e-05
3.6135936e-05
3.5272629e-05
3.440853e-05
3.3543693e-05
3.2678171e-05
3.1812013e-05
3.0945266e-05
3.0077976e-05
2.9210184e-05
2.8341931e-05
2.7473253e-05
2.6604187e-05
2.5734765e-05
2.4865019e-05
2.3994977e-05
2.3124667e-05
2.2254113e-05
2.138334e-05
2.0512369e-05
1.9641219e-05
1.8769909e-05
1.7898455e-05
1.7026871e-05
1.6155171e-05
1.5283367e-05
1.4411468e-05
1.3539482e-05
1.2667417e-05
1.1795277e-05
1.0923065e-05
1.0050784e-05
9.1784324e-06
8.306009e-06
7.4335105e-06
6.5609326e-06
5.6882712e-06
4.8155259e-06
3.9426893e-06
3.0697087e-06
2.1967911e-06
1.3255192e-06
4.5170935e-07
-0.00039752981
-0.00023997626
-0.00014546579
-9.3217974e-05
-5.3841936e-05
-2.2012404e-05
4.0771859e-06
2.611801e-05
4.4987566e-05
6.1109943e-05
7.4777755e-05
8.6236247e-05
9.5709278e-05
0.00010341241
0.00010955528
0.00011433916
0.00011795368
0.00012057422
0.00012236008
0.00012345374
0.00012398084
0.00012405076
0.00012375769
0.00012318185
0.00012239108
0.00012144231
0.00012038224
0.00011924903
0.00011807385
0.00011688169
0.00011569231
0.00011452109
0.00011337972
0.00011227688
0.00011121874
0.00011020939
0.00010925128
0.00010834553
0.00010749217
0.0001066904
0.00010593878
0.00010523538
0.0001045779
0.00010396379
0.00010339033
0.00010285471
0.00010235408
0.00010188557
0.00010144637
0.00010103373
0.00010064499
0.00010027756
9.9929e-05
9.9596958e-05
9.9279212e-05
9.8973663e-05
9.8678332e-05
9.8391359e-05
9.8111005e-05
9.7835644e-05
9.7563759e-05
9.7293941e-05
9.7024883e-05
9.6755372e-05
9.6484289e-05
9.6210603e-05
9.5933364e-05
9.5651699e-05
9.5364813e-05
9.5071974e-05
9.4772522e-05
9.4465852e-05
9.4151422e-05
9.3828741e-05
9.349737e-05
9.3156918e-05
9.2807039e-05
9.2447429e-05
9.2077822e-05
9.1697992e-05
9.1307745e-05
9.0906921e-05
9.049539e-05
9.007305e-05
8.9639826e-05
8.9195668e-05
8.8740549e-05
8.8274464e-05
8.7797427e-05
8.7309473e-05
8.6810651e-05
8.630103e-05
8.5780691e-05
8.5249729e-05
8.4708254e-05
8.4156386e-05
8.3594255e-05
8.3022001e-05
8.2439775e-05
8.1847733e-05
8.1246041e-05
8.063487e-05
8.0014395e-05
7.93848e-05
7.874627e-05
7.8098996e-05
7.7443172e-05
7.6778993e-05
7.6106657e-05
7.5426365e-05
7.4738317e-05
7.4042716e-05
7.3339765e-05
7.2629664e-05
7.1912616e-05
7.1188824e-05
7.0458486e-05
6.9721801e-05
6.8978968e-05
6.8230182e-05
6.7475636e-05
6.6715521e-05
6.5950027e-05
6.517934e-05
6.4403642e-05
6.3623115e-05
6.2837935e-05
6.2048276e-05
6.125431e-05
6.0456203e-05
5.9654118e-05
5.8848217e-05
5.8038655e-05
5.7225585e-05
5.6409155e-05
5.5589512e-05
5.4766795e-05
5.3941143e-05
5.3112689e-05
5.2281562e-05
5.1447888e-05
5.0611789e-05
4.9773383e-05
4.8932785e-05
4.8090104e-05
4.7245448e-05
4.639892e-05
4.5550618e-05
4.4700639e-05
4.3849074e-05
4.2996013e-05
4.214154e-05
4.1285737e-05
4.0428684e-05
3.9570454e-05
3.8711121e-05
3.7850752e-05
3.6989414e-05
3.612717e-05
3.5264079e-05
3.44002e-05
3.3535585e-05
3.2670287e-05
3.1804355e-05
3.0937836e-05
3.0070773e-05
2.9203208e-05
2.833518e-05
2.7466727e-05
2.6597883e-05
2.5728681e-05
2.4859152e-05
2.3989324e-05
2.3119224e-05
2.2248878e-05
2.1378308e-05
2.0507535e-05
1.963658e-05
1.876546e-05
1.789419e-05
1.7022787e-05
1.6151263e-05
1.527963e-05
1.4407898e-05
1.3536075e-05
1.2664169e-05
1.1792186e-05
1.0920129e-05
1.0048002e-05
9.1758079e-06
8.3035476e-06
7.4312226e-06
6.5588348e-06
5.6863884e-06
4.8138933e-06
3.9413547e-06
3.0687318e-06
2.1962393e-06
1.3255233e-06
4.5241849e-07
-0.00068171408
-0.00030775364
-0.00014925616
-8.5399995e-05
-4.3669587e-05
-1.2541247e-05
1.1694244e-05
3.1783168e-05
4.8937163e-05
6.3638175e-05
7.6163842e-05
8.6724057e-05
9.5504045e-05
0.00010268386
0.00010844242
0.00011295507
0.0001163898
0.00011890401
0.00012064215
0.00012173437
0.00012229613
0.00012242838
0.00012221839
0.00012174079
0.00012105923
0.00012022624
0.00011928503
0.00011827156
0.00011721508
0.00011613905
0.00011506201
0.00011399844
0.00011295938
0.00011195304
0.00011098528
0.00011006004
0.00010917972
0.00010834547
0.00010755741
0.00010681493
0.00010611679
0.00010546128
0.00010484637
0.00010426979
0.00010372912
0.00010322183
0.00010274536
0.00010229715
0.00010187467
0.00010147544
0.00010109706
0.00010073723
0.00010039373
0.00010006446
9.974741e-05
9.94407e-05
9.9142545e-05
9.8851271e-05
9.8565309e-05
9.8283195e-05
9.800356e-05
9.7725131e-05
9.7446727e-05
9.716725e-05
9.6885689e-05
9.6601106e-05
9.6312639e-05
9.6019496e-05
9.5720951e-05
9.5416338e-05
9.5105052e-05
9.4786542e-05
9.446031e-05
9.4125905e-05
9.3782924e-05
9.3431007e-05
9.3069834e-05
9.2699125e-05
9.2318634e-05
9.192815e-05
9.1527495e-05
9.1116519e-05
9.0695102e-05
9.0263148e-05
8.9820589e-05
8.9367377e-05
8.8903489e-05
8.8428919e-05
8.7943683e-05
8.7447813e-05
8.6941357e-05
8.642438e-05
8.5896961e-05
8.5359191e-05
8.4811174e-05
8.4253026e-05
8.3684871e-05
8.3106846e-05
8.2519092e-05
8.1921763e-05
8.1315015e-05
8.0699015e-05
8.0073933e-05
7.9439944e-05
7.8797227e-05
7.8145968e-05
7.7486353e-05
7.6818571e-05
7.6142815e-05
7.5459279e-05
7.4768157e-05
7.4069646e-05
7.3363942e-05
7.2651241e-05
7.1931739e-05
7.1205633e-05
7.0473117e-05
6.9734385e-05
6.8989629e-05
6.823904e-05
6.7482805e-05
6.6721113e-05
6.5954145e-05
6.5182086e-05
6.4405112e-05
6.3623401e-05
6.2837124e-05
6.2046453e-05
6.1251554e-05
6.0452591e-05
5.9649722e-05
5.8843105e-05
5.8032893e-05
5.7219234e-05
5.6402275e-05
5.5582158e-05
5.475902e-05
5.3932996e-05
5.3104216e-05
5.2272809e-05
5.1438895e-05
5.0602596e-05
4.9764027e-05
4.8923299e-05
4.8080521e-05
4.7235798e-05
4.638923e-05
4.5540914e-05
4.4690946e-05
4.3839414e-05
4.2986406e-05
4.2132005e-05
4.1276292e-05
4.0419344e-05
3.9561234e-05
3.8702033e-05
3.7841809e-05
3.6980626e-05
3.6118546e-05
3.5255628e-05
3.4391929e-05
3.35275e-05
3.2662394e-05
3.1796658e-05
3.0930338e-05
3.0063478e-05
2.9196118e-05
2.8328297e-05
2.7460051e-05
2.6591415e-05
2.572242e-05
2.4853098e-05
2.3983476e-05
2.3113581e-05
2.2243437e-05
2.1373068e-05
2.0502493e-05
1.9631733e-05
1.8760805e-05
1.7889725e-05
1.7018509e-05
1.6147168e-05
1.5275716e-05
1.4404162e-05
1.3532515e-05
1.2660784e-05
1.1788974e-05
1.0917092e-05
1.0045143e-05
9.173131e-06
8.3010608e-06
7.4289379e-06
6.5567693e-06
5.6845653e-06
4.8123426e-06
3.9401143e-06
3.0678454e-06
2.195747e-06
1.3255041e-06
4.5305407e-07
0.00011349984
2.6412381e-06
-3.0028902e-05
-2.5286981e-05
-1.0759658e-05
6.0636753e-06
2.2950154e-05
3.8854645e-05
5.3297631e-05
6.6108854e-05
7.725998e-05
8.6795812e-05
9.4807999e-05
0.0001014179
0.00010676326
0.00011098832
0.00011423659
0.00011664555
0.00011834324
0.00011944621
0.00012005857
0.00012027191
0.000120166
0.00011980971
0.0001192606
0.00011856633
0.00011776731
0.00011689684
0.000115982
0.00011504453
0.00011410173
0.00011316707
0.00011225091
0.00011136095
0.00011050273
0.00010968003
0.00010889518
0.00010814935
0.0001074428
0.00010677505
0.00010614507
0.00010555142
0.00010499233
0.0001044658
0.00010396973
0.00010350188
0.00010306
0.00010264185
0.00010224519
0.00010186785
0.00010150773
0.00010116278
0.00010083108
0.00010051078
0.00010020012
9.9897445e-05
9.9601202e-05
9.9309926e-05
9.9022245e-05
9.8736879e-05
9.8452632e-05
9.8168391e-05
9.7883124e-05
9.7595871e-05
9.7305746e-05
9.7011929e-05
9.6713665e-05
9.641026e-05
9.6101074e-05
9.5785525e-05
9.5463078e-05
9.5133251e-05
9.4795603e-05
9.4449736e-05
9.4095296e-05
9.3731964e-05
9.3359457e-05
9.2977527e-05
9.2585959e-05
9.2184564e-05
9.1773187e-05
9.1351696e-05
9.0919986e-05
9.0477975e-05
9.0025605e-05
8.9562837e-05
8.9089653e-05
8.8606054e-05
8.8112058e-05
8.7607699e-05
8.7093028e-05
8.6568108e-05
8.6033017e-05
8.5487845e-05
8.4932693e-05
8.4367673e-05
8.3792906e-05
8.3208524e-05
8.2614666e-05
8.2011477e-05
8.1399112e-05
8.0777729e-05
8.0147493e-05
7.9508574e-05
7.8861147e-05
7.8205388e-05
7.7541479e-05
7.6869604e-05
7.6189949e-05
7.5502702e-05
7.4808051e-05
7.4106186e-05
7.3397299e-05
7.2681579e-05
7.1959217e-05
7.1230404e-05
7.0495329e-05
6.9754179e-05
6.9007142e-05
6.8254403e-05
6.7496146e-05
6.6732552e-05
6.5963801e-05
6.5190068e-05
6.4411529e-05
6.3628355e-05
6.2840714e-05
6.2048773e-05
6.1252694e-05
6.0452636e-05
5.9648755e-05
5.8841204e-05
5.8030133e-05
5.7215686e-05
5.6398006e-05
5.5577232e-05
5.4753498e-05
5.3926936e-05
5.3097674e-05
5.2265834e-05
5.1431539e-05
5.0594903e-05
4.9756042e-05
4.8915062e-05
4.8072071e-05
4.7227171e-05
4.6380461e-05
4.5532034e-05
4.4681984e-05
4.3830399e-05
4.2977364e-05
4.2122959e-05
4.1267265e-05
4.0410356e-05
3.9552304e-05
3.8693178e-05
3.7833045e-05
3.6971968e-05
3.6110008e-05
3.5247221e-05
3.4383663e-05
3.3519386e-05
3.265444e-05
3.1788872e-05
3.0922726e-05
3.0056046e-05
2.918887e-05
2.8321238e-05
2.7453184e-05
2.6584743e-05
2.5715946e-05
2.4846822e-05
2.3977399e-05
2.3107704e-05
2.223776e-05
2.136759e-05
2.0497214e-05
1.9626652e-05
1.875592e-05
1.7885036e-05
1.7014014e-05
1.6142866e-05
1.5271606e-05
1.4400242e-05
1.3528786e-05
1.2657245e-05
1.1785628e-05
1.091394e-05
1.0042189e-05
9.1703818e-06
8.2985251e-06
7.4266278e-06
6.5547005e-06
5.6827575e-06
4.8108197e-06
3.9389046e-06
3.0669795e-06
2.1952408e-06
1.3253942e-06
4.5361614e-07
7.1762156e-05
-2.9971783e-06
-1.8959721e-05
-8.3221487e-06
3.9923569e-06
1.6937628e-05
3.0658244e-05
4.4056445e-05
5.6483256e-05
6.7699713e-05
7.7602503e-05
8.6166879e-05
9.343247e-05
9.9481024e-05
0.00010441823
0.00010836166
0.00011143226
0.00011374827
0.0001154213
0.00011655383
0.00011723812
0.00011755654
0.00011758071
0.00011737124
0.00011697942
0.00011644934
0.00011581784
0.00011511527
0.00011436639
0.00011359117
0.00011280554
0.00011202197
0.00011125007
0.00011049704
0.00010976812
0.00010906689
0.00010839564
0.00010775558
0.00010714708
0.00010656984
0.00010602305
0.00010550551
0.00010501574
0.00010455205
0.00010411263
0.00010369558
0.00010329896
0.00010292086
0.00010255936
0.00010221261
0.00010187881
0.00010155624
0.00010124324
0.00010093827
0.00010063983
0.00010034652
0.00010005705
9.9770181e-05
9.9484762e-05
9.9199723e-05
9.8914065e-05
9.862686e-05
9.8337247e-05
9.8044428e-05
9.7747665e-05
9.7446274e-05
9.7139629e-05
9.682715e-05
9.6508307e-05
9.6182615e-05
9.5849629e-05
9.5508946e-05
9.5160201e-05
9.4803063e-05
9.4437236e-05
9.4062456e-05
9.3678488e-05
9.3285128e-05
9.2882196e-05
9.246954e-05
9.2047033e-05
9.1614568e-05
9.1172064e-05
9.0719456e-05
9.0256704e-05
8.9783781e-05
8.9300683e-05
8.8807418e-05
8.8304011e-05
8.7790504e-05
8.726695e-05
8.6733415e-05
8.618998e-05
8.5636733e-05
8.5073775e-05
8.4501218e-05
8.391918e-05
8.332779e-05
8.2727183e-05
8.2117501e-05
8.1498894e-05
8.0871516e-05
8.0235528e-05
7.9591093e-05
7.893838e-05
7.8277562e-05
7.7608813e-05
7.6932312e-05
7.6248238e-05
7.5556775e-05
7.4858104e-05
7.415241e-05
7.3439878e-05
7.2720692e-05
7.1995038e-05
7.1263098e-05
7.0525058e-05
6.97811e-05
6.9031405e-05
6.8276152e-05
6.7515522e-05
6.6749688e-05
6.5978827e-05
6.5203108e-05
6.4422703e-05
6.3637778e-05
6.2848496e-05
6.205502e-05
6.1257506e-05
6.0456111e-05
5.9650985e-05
5.8842278e-05
5.8030135e-05
5.7214697e-05
5.6396104e-05
5.5574489e-05
5.4749985e-05
5.3922719e-05
5.3092816e-05
5.2260396e-05
5.1425576e-05
5.0588471e-05
4.974919e-05
4.890784e-05
4.8064524e-05
4.7219342e-05
4.6372389e-05
4.5523758e-05
4.467354e-05
4.382182e-05
4.296868e-05
4.2114202e-05
4.125846e-05
4.0401528e-05
3.9543478e-05
3.8684376e-05
3.7824286e-05
3.6963271e-05
3.6101389e-05
3.5238697e-05
3.4375248e-05
3.3511093e-05
3.264628e-05
3.1780856e-05
3.0914864e-05
3.0048346e-05
2.918134e-05
2.8313884e-05
2.7446012e-05
2.6577757e-05
2.5709151e-05
2.4840221e-05
2.3970996e-05
2.31015e-05
2.2231758e-05
2.136179e-05
2.0491618e-05
1.962126e-05
1.8750734e-05
1.7880055e-05
1.7009237e-05
1.6138295e-05
1.526724e-05
1.4396082e-05
1.3524833e-05
1.2653501e-05
1.1782094e-05
1.0910621e-05
1.003909e-05
9.1675091e-06
8.2958876e-06
7.4242366e-06
6.5525692e-06
5.6809022e-06
4.8092585e-06
3.9376574e-06
3.0660671e-06
2.194673e-06
1.325181e-06
4.539636e-07
2.2738683e-05
3.6848836e-06
-1.3537555e-07
6.5299652e-06
1.526594e-05
2.5391326e-05
3.6597844e-05
4.7871513e-05
5.8556147e-05
6.835441e-05
7.7112451e-05
8.4765062e-05
9.131875e-05
9.6827262e-05
0.00010137158
0.00010504705
0.00010795444
0.00011019385
0.00011186086
0.00011304433
0.00011382506
0.00011427402
0.00011445259
0.00011441431
0.00011420554
0.00011386556
0.00011342724
0.00011291777
0.00011235949
0.00011177051
0.00011116532
0.00011055536
0.00010994947
0.00010935435
0.0001087749
0.00010821454
0.00010767551
0.00010715907
0.00010666569
0.00010619528
0.00010574724
0.00010532063
0.00010491426
0.00010452676
0.00010415661
0.00010380226
0.00010346212
0.00010313458
0.0001028181
0.00010251113
0.00010221222
0.00010191996
0.00010163301
0.00010135013
0.00010107012
0.00010079187
0.00010051434
0.00010023656
9.9957634e-05
9.9676721e-05
9.9393046e-05
9.9105887e-05
9.8814581e-05
9.8518512e-05
9.8217114e-05
9.7909866e-05
9.7596286e-05
9.7275935e-05
9.6948408e-05
9.6613337e-05
9.6270385e-05
9.5919248e-05
9.555965e-05
9.5191341e-05
9.48141e-05
9.4427729e-05
9.4032055e-05
9.3626927e-05
9.3212214e-05
9.2787809e-05
9.235362e-05
9.1909578e-05
9.1455628e-05
9.0991735e-05
9.0517878e-05
9.0034053e-05
8.9540269e-05
8.9036551e-05
8.8522935e-05
8.7999472e-05
8.7466222e-05