/*--------------------------------*- C++ -*----------------------------------*\
| =========                 |                                                 |
| \\      /  F ield         | OpenFOAM: The Open Source CFD Toolbox           |
|  \\    /   O peration     | Version:  2406                                  |
|   \\  /    A nd           | Website:  www.openfoam.com                      |
|    \\/     M anipulation  |                                                 |
\*---------------------------------------------------------------------------*/
FoamFile
{
    version     2.0;
    format      ascii;
    arch        "LSB;label=32;scalar=64";
    class       surfaceScalarField;
    location    "937";
    object      phi;
}
// * * * * * * * * * * * * * * * * * * * * * * * * * * * * * * * * * * * * * //

dimensions      [0 3 -1 0 0 0 0];

oriented        oriented;

internalField   nonuniform List<scalar> 
19351
(
-6.7137263e-14
6.7137263e-14
-1.9495192e-13
1.2781466e-13
-3.1767871e-13
1.2272678e-13
-3.9894724e-13
8.1268538e-14
-4.2952565e-13
3.057841e-14
-4.1432377e-13
-1.5201883e-14
-3.6385192e-13
-5.0471846e-14
-2.8950853e-13
-7.4343397e-14
-2.0134312e-13
-8.8165408e-14
-1.0727806e-13
-9.4065057e-14
-1.3087844e-14
-9.4190218e-14
7.7300371e-14
-9.0388215e-14
1.6140982e-13
-8.4109449e-14
2.3784579e-13
-7.6435966e-14
3.0597849e-13
-6.8132701e-14
3.6569737e-13
-5.9718887e-14
4.1722999e-13
-5.1532618e-14
4.6101269e-13
-4.37827e-14
4.9760085e-13
-3.6588155e-14
5.2760792e-13
-3.0007076e-14
5.5166502e-13
-2.4057097e-14
5.7039465e-13
-1.8729629e-14
5.8439427e-13
-1.3999624e-14
5.9422649e-13
-9.8322205e-15
6.0041373e-13
-6.1872362e-15
6.034359e-13
-3.0221726e-15
6.037301e-13
-2.942001e-16
6.0169144e-13
2.0386596e-15
5.9767465e-13
4.0167947e-15
5.9199651e-13
5.6781381e-15
5.8493857e-13
7.0579434e-15
5.7674991e-13
8.1886566e-15
5.6764999e-13
9.0999176e-15
5.5783136e-13
9.8186356e-15
5.4746224e-13
1.0369113e-14
5.3668905e-13
1.0773193e-14
5.2563862e-13
1.1050433e-14
5.1442034e-13
1.1218274e-14
5.0312812e-13
1.129222e-14
4.9184212e-13
1.1286008e-14
4.8063034e-13
1.1211777e-14
4.6955011e-13
1.1080226e-14
4.5864936e-13
1.0900755e-14
4.4796775e-13
1.0681609e-14
4.3753775e-13
1.0429998e-14
4.2738554e-13
1.0152212e-14
4.1753181e-13
9.8537265e-15
4.0799252e-13
9.5392943e-15
3.9877949e-13
9.2130294e-15
3.8990101e-13
8.8784827e-15
3.813623e-13
8.5387093e-15
3.7316597e-13
8.1963278e-15
3.653124e-13
7.8535739e-15
3.5780005e-13
7.5123472e-15
3.506258e-13
7.1742533e-15
3.4378515e-13
6.8406404e-15
3.3727252e-13
6.5126317e-15
3.3108137e-13
6.1911548e-15
3.252044e-13
5.8769665e-15
3.1963373e-13
5.570675e-15
3.1436097e-13
5.2727602e-15
3.0937738e-13
4.98359e-15
3.0467394e-13
4.7034363e-15
3.0024145e-13
4.4324877e-15
2.9607059e-13
4.1708612e-15
2.9215198e-13
3.9186127e-15
2.8847623e-13
3.6757457e-15
2.8503401e-13
3.4422191e-15
2.8181606e-13
3.2179539e-15
2.7881322e-13
3.0028394e-15
2.7601648e-13
2.7967382e-15
2.7341699e-13
2.5994908e-15
2.7100607e-13
2.4109192e-15
2.6877524e-13
2.2308309e-15
2.6671622e-13
2.0590214e-15
2.6482094e-13
1.8952767e-15
2.6308157e-13
1.7393759e-15
2.6149047e-13
1.591093e-15
2.6004027e-13
1.4501982e-15
2.5872381e-13
1.3164598e-15
2.5753417e-13
1.189645e-15
2.5646465e-13
1.0695216e-15
2.5550879e-13
9.5585788e-16
2.5466036e-13
8.4842442e-16
2.5391337e-13
7.4699411e-16
2.5326203e-13
6.5134295e-16
2.5270078e-13
5.6125042e-16
2.5222428e-13
4.7650004e-16
2.518274e-13
3.9687944e-16
2.5150521e-13
3.2218092e-16
2.5125301e-13
2.5220139e-16
2.5106627e-13
1.8674274e-16
2.5094066e-13
1.2561189e-16
2.5087204e-13
6.8620829e-17
2.5085645e-13
1.5586845e-17
2.5089012e-13
-3.3667511e-17
2.5096943e-13
-7.931442e-17
2.5109095e-13
-1.2152086e-16
2.512514e-13
-1.6044844e-16
2.5144765e-13
-1.9625365e-16
2.5167674e-13
-2.2908782e-16
2.5193584e-13
-2.5909719e-16
2.5222226e-13
-2.8642296e-16
2.5253346e-13
-3.1120137e-16
2.5286703e-13
-3.335638e-16
2.5322066e-13
-3.5363695e-16
2.535922e-13
-3.7154285e-16
2.539796e-13
-3.8739901e-16
2.5438092e-13
-4.0131852e-16
2.5479433e-13
-4.1341009e-16
2.5521811e-13
-4.2377828e-16
2.5565063e-13
-4.3252357e-16
2.5609037e-13
-4.397425e-16
2.565359e-13
-4.4552768e-16
2.5698587e-13
-4.499681e-16
2.5743902e-13
-4.5314888e-16
2.5789417e-13
-4.5515183e-16
2.5835022e-13
-4.5605518e-16
2.5880616e-13
-4.5593397e-16
2.5926102e-13
-4.5486006e-16
2.5971392e-13
-4.5290219e-16
2.6016404e-13
-4.5012608e-16
2.6061064e-13
-4.4659455e-16
2.61053e-13
-4.4236751e-16
2.6149051e-13
-4.3750217e-16
2.6192256e-13
-4.3205319e-16
2.6234863e-13
-4.2607262e-16
2.6276824e-13
-4.1961004e-16
2.6318095e-13
-4.1271267e-16
2.6358638e-13
-4.0542525e-16
2.6398417e-13
-3.9779039e-16
2.6437401e-13
-3.8984854e-16
2.6475565e-13
-3.8163807e-16
2.6512885e-13
-3.7319525e-16
2.654934e-13
-3.6455453e-16
2.6584915e-13
-3.5574812e-16
2.6619595e-13
-3.4680669e-16
2.6653371e-13
-3.3775896e-16
2.6686234e-13
-3.2863198e-16
2.6718179e-13
-3.1945131e-16
2.6749203e-13
-3.1024084e-16
2.6779305e-13
-3.0102287e-16
2.6808487e-13
-2.9181828e-16
2.6836752e-13
-2.8264638e-16
2.6864104e-13
-2.7352517e-16
2.6890551e-13
-2.6447146e-16
2.6916101e-13
-2.5550073e-16
2.6940764e-13
-2.4662724e-16
2.696455e-13
-2.3786415e-16
2.6987473e-13
-2.2922336e-16
2.7009544e-13
-2.2071576e-16
2.7030779e-13
-2.123514e-16
2.7051193e-13
-2.0413917e-16
2.7070802e-13
-1.960873e-16
2.7089622e-13
-1.8820292e-16
2.7107671e-13
-1.804925e-16
2.7124967e-13
-1.7296161e-16
2.7141529e-13
-1.6561518e-16
2.7157375e-13
-1.5845739e-16
2.7172524e-13
-1.5149183e-16
2.7186996e-13
-1.4472154e-16
2.7200811e-13
-1.381488e-16
2.7213988e-13
-1.3177562e-16
2.7226548e-13
-1.2560323e-16
2.7238512e-13
-1.1963262e-16
2.7249898e-13
-1.1386432e-16
2.7260728e-13
-1.0829859e-16
2.7271021e-13
-1.0293524e-16
2.7280798e-13
-9.7773927e-17
2.729008e-13
-9.2813784e-17
2.7298885e-13
-8.8053971e-17
2.7307234e-13
-8.349328e-17
2.7315147e-13
-7.9130572e-17
2.7322644e-13
-7.4964398e-17
2.7329743e-13
-7.0993525e-17
2.7336465e-13
-6.7216414e-17
2.7342828e-13
-6.3631954e-17
2.7348852e-13
-6.0238848e-17
2.7354555e-13
-5.7036441e-17
2.7359957e-13
-5.4024111e-17
2.7365078e-13
-5.120229e-17
2.7369935e-13
-4.8571728e-17
2.7374548e-13
-4.6134976e-17
2.7378938e-13
-4.3895869e-17
2.7383124e-13
-4.186126e-17
2.7387128e-13
-4.0041187e-17
2.7390973e-13
-3.8451486e-17
2.7394685e-13
-3.7114914e-17
2.7398291e-13
-3.6066278e-17
2.7401827e-13
-3.5357042e-17
2.7405334e-13
-3.5064665e-17
2.7408865e-13
-3.5307059e-17
2.7412491e-13
-3.6263915e-17
2.7416313e-13
-3.8214578e-17
2.7420473e-13
-4.1596847e-17
2.7425182e-13
-4.7095183e-17
2.7430753e-13
-5.5709278e-17
2.7437641e-13
-6.887515e-17
2.7446628e-13
-8.9866958e-17
-1.2035426e-16
-1.5694495e-13
2.2408221e-13
-4.1047301e-13
3.8134272e-13
-6.2876243e-13
3.410162e-13
-7.528161e-13
2.0532221e-13
-7.7129037e-13
4.9052675e-14
-6.9772346e-13
-8.876879e-14
-5.5489996e-13
-1.9329535e-13
-3.6625629e-13
-2.6298706e-13
-1.5198946e-13
-3.0243224e-13
7.2126251e-14
-3.1818077e-13
2.9456912e-13
-3.1663309e-13
5.0745491e-13
-3.03274e-13
7.057555e-13
-2.8241004e-13
8.8655635e-13
-2.5723682e-13
1.0484617e-12
-2.3003801e-13
1.1911318e-12
-2.0238906e-13
1.3149381e-12
-1.7533892e-13
1.420712e-12
-1.4955659e-13
1.5095668e-12
-1.2544292e-13
1.5827725e-12
-1.0321279e-13
1.6416695e-12
-8.2954074e-14
1.6876093e-12
-6.4669408e-14
1.721915e-12
-4.8305376e-14
1.7458557e-12
-3.3772895e-14
1.7606298e-12
-2.0961389e-14
1.7673563e-12
-9.748613e-15
1.7670695e-12
-7.399779e-18
1.7607181e-12
8.3900836e-15
1.7491658e-12
1.5569087e-14
1.7331943e-12
2.1649558e-14
1.7135076e-12
2.6744703e-14
1.690736e-12
3.0960217e-14
1.665442e-12
3.4393942e-14
1.6381248e-12
3.7135812e-14
1.6092259e-12
3.9267988e-14
1.579134e-12
4.0865135e-14
1.5481897e-12
4.1994786e-14
1.5166902e-12
4.2717773e-14
1.4848937e-12
4.3088687e-14
1.4530233e-12
4.3156347e-14
1.4212709e-12
4.2964274e-14
1.3897999e-12
4.2551154e-14
1.3587494e-12
4.1951281e-14
1.328236e-12
4.1194973e-14
1.2983571e-12
4.0308966e-14
1.2691925e-12
3.9316779e-14
1.2408072e-12
3.8239049e-14
1.2132526e-12
3.7093836e-14
1.1865688e-12
3.5896903e-14
1.1607853e-12
3.466197e-14
1.135923e-12
3.3400944e-14
1.1119952e-12
3.2124121e-14
1.0890084e-12
3.0840374e-14
1.0669635e-12
2.9557316e-14
1.0458563e-12
2.8281451e-14
1.0256786e-12
2.7018301e-14
1.0064187e-12
2.5772529e-14
9.8806183e-13
2.4548039e-14
9.7059073e-13
2.3348071e-14
9.5398612e-13
2.2175282e-14
9.3822706e-13
2.1031822e-14
9.2329126e-13
1.9919393e-14
9.0915538e-13
1.8839312e-14
8.9579531e-13
1.7792558e-14
8.8318636e-13
1.6779817e-14
8.7130345e-13
1.5801523e-14
8.601213e-13
1.4857891e-14
8.4961457e-13
1.3948948e-14
8.3975797e-13
1.307456e-14
8.3052635e-13
1.2234456e-14
8.2189484e-13
1.1428249e-14
8.1383887e-13
1.0655452e-14
8.063343e-13
9.9154975e-15
7.9935738e-13
9.2077473e-15
7.9288489e-13
8.5315084e-15
7.8689413e-13
7.886042e-15
7.8136293e-13
7.270573e-15
7.7626972e-13
6.6842983e-15
7.7159353e-13
6.1263935e-15
7.6731397e-13
5.5960197e-15
7.6341128e-13
5.0923281e-15
7.5986634e-13
4.6144652e-15
7.5666062e-13
4.1615766e-15
7.5377624e-13
3.7328103e-15
7.5119591e-13
3.3273201e-15
7.4890298e-13
2.9442678e-15
7.4688141e-13
2.5828253e-15
7.4511573e-13
2.2421771e-15
7.4359109e-13
1.9215212e-15
7.422932e-13
1.6200705e-15
7.4120835e-13
1.3370542e-15
7.4032337e-13
1.0717186e-15
7.3962565e-13
8.2332752e-16
7.3910311e-13
5.9116315e-16
7.3874417e-13
3.7452643e-16
7.3853777e-13
1.7273742e-16
7.3847332e-13
-1.4864577e-17
7.3854071e-13
-1.8892074e-16
7.3873032e-13
-3.5005319e-16
7.3903293e-13
-4.9886455e-16
7.3943978e-13
-6.3593835e-16
7.3994252e-13
-7.6183906e-16
7.4053321e-13
-8.7711234e-16
7.4120429e-13
-9.8228521e-16
7.419486e-13
-1.0778665e-15
7.4275931e-13
-1.1643471e-15
7.4362996e-13
-1.2422004e-15
7.4455445e-13
-1.3118827e-15
7.4552696e-13
-1.3738333e-15
7.4654202e-13
-1.428475e-15
7.4759446e-13
-1.476215e-15
7.4867938e-13
-1.5174446e-15
7.4979218e-13
-1.5525401e-15
7.5092851e-13
-1.5818629e-15
7.520843e-13
-1.6057604e-15
7.5325572e-13
-1.6245657e-15
7.5443916e-13
-1.6385983e-15
7.5563127e-13
-1.648165e-15
7.568289e-13
-1.6535596e-15
7.580291e-13
-1.6550639e-15
7.5922915e-13
-1.6529477e-15
7.6042649e-13
-1.647469e-15
7.6161877e-13
-1.6388749e-15
7.628038e-13
-1.6274012e-15
7.6397957e-13
-1.6132734e-15
7.6514422e-13
-1.596707e-15
7.6629606e-13
-1.5779073e-15
7.6743352e-13
-1.5570704e-15
7.6855519e-13
-1.5343828e-15
7.6965978e-13
-1.510022e-15
7.7074615e-13
-1.484157e-15
7.7181325e-13
-1.4569482e-15
7.7286016e-13
-1.4285482e-15
7.7388606e-13
-1.3991014e-15
7.7489025e-13
-1.3687448e-15
7.7587211e-13
-1.3376077e-15
7.7683111e-13
-1.3058123e-15
7.7776682e-13
-1.2734739e-15
7.7867889e-13
-1.2407014e-15
7.7956704e-13
-1.2075971e-15
7.8043105e-13
-1.1742575e-15
7.812708e-13
-1.1407726e-15
7.8208621e-13
-1.1072268e-15
7.8287726e-13
-1.0736988e-15
7.8364399e-13
-1.0402622e-15
7.8438651e-13
-1.0069852e-15
7.8510494e-13
-9.7393161e-16
7.8579947e-13
-9.4115998e-16
7.8647033e-13
-9.0872455e-16
7.8711778e-13
-8.7667502e-16
7.8774212e-13
-8.450571e-16
7.8834368e-13
-8.1391253e-16
7.8892282e-13
-7.8327939e-16
7.8947992e-13
-7.5319214e-16
7.900154e-13
-7.2368182e-16
7.9052968e-13
-6.9477621e-16
7.9102322e-13
-6.6650003e-16
7.9149648e-13
-6.388751e-16
7.9194994e-13
-6.119205e-16
7.923841e-13
-5.8565282e-16
7.9279947e-13
-5.6008625e-16
7.9319655e-13
-5.3523265e-16
7.9357587e-13
-5.1110177e-16
7.9393797e-13
-4.8770133e-16
7.9428337e-13
-4.6503734e-16
7.9461262e-13
-4.4311421e-16
7.9492626e-13
-4.2193497e-16
7.9522482e-13
-4.0150116e-16
7.9550886e-13
-3.8181311e-16
7.9577891e-13
-3.6286995e-16
7.9603553e-13
-3.4466995e-16
7.9627925e-13
-3.2721064e-16
7.965106e-13
-3.1048895e-16
7.9673014e-13
-2.945014e-16
7.9693839e-13
-2.7924425e-16
7.9713589e-13
-2.6471376e-16
7.9732316e-13
-2.5090643e-16
7.9750074e-13
-2.3781935e-16
7.9766915e-13
-2.254506e-16
7.9782893e-13
-2.1379982e-16
7.9798059e-13
-2.0286882e-16
7.9812468e-13
-1.9266264e-16
7.9826174e-13
-1.8319074e-16
7.9839231e-13
-1.744691e-16
7.9851697e-13
-1.6652254e-16
7.9863632e-13
-1.5938847e-16
7.9875099e-13
-1.5312175e-16
7.9886168e-13
-1.478021e-16
7.9896916e-13
-1.4354463e-16
7.9907432e-13
-1.4051504e-16
7.991782e-13
-1.3895138e-16
7.992821e-13
-1.3919504e-16
7.9938757e-13
-1.4173374e-16
7.9949662e-13
-1.4726063e-16
7.9961177e-13
-1.5674691e-16
7.9973618e-13
-1.7149963e-16
7.9987357e-13
-1.9310245e-16
8.0002792e-13
-2.2322764e-16
8.0020119e-13
-2.6313797e-16
-3.0554488e-16
-2.0634362e-13
4.3042584e-13
-4.884959e-13
6.6349499e-13
-6.8322847e-13
5.3574878e-13
-7.4264272e-13
2.6473646e-13
-6.7284482e-13
-2.074523e-14
-5.0088956e-13
-2.6072405e-13
-2.5818551e-13
-4.359994e-13
2.7152929e-14
-5.483255e-13
3.3269202e-13
-6.0797133e-13
6.417576e-13
-6.2724635e-13
9.4263557e-13
-6.1751106e-13
1.2274719e-12
-5.8811032e-13
1.4913192e-12
-5.4625731e-13
1.731362e-12
-4.9727965e-13
1.9463106e-12
-4.4498664e-13
2.1359477e-12
-3.9202613e-13
2.3007946e-12
-3.4018587e-13
2.4418687e-12
-2.9063063e-13
2.5605066e-12
-2.4408089e-13
2.6582378e-12
-2.0094389e-13
2.7366919e-12
-1.6140824e-13
2.7975341e-12
-1.2551157e-13
2.8424174e-12
-9.3188649e-14
2.8729502e-12
-6.4305694e-14
2.8906736e-12
-3.8684819e-14
2.8970465e-12
-1.6121524e-14
2.8934362e-12
3.6029218e-15
2.8811127e-12
2.0713569e-14
2.8612473e-12
3.543448e-14
2.8349132e-12
4.7983604e-14
2.8030884e-12
5.8569542e-14
2.766659e-12
6.7389585e-14
2.7264244e-12
7.4628545e-14
2.6831021e-12
8.0458167e-14
2.6373331e-12
8.503697e-14
2.5896878e-12
8.8510404e-14
2.5406714e-12
9.1011239e-14
2.490729e-12
9.2660114e-14
2.4402515e-12
9.3566192e-14
2.38958e-12
9.3827881e-14
2.3390107e-12
9.3533598e-14
2.2887993e-12
9.2762522e-14
2.2391652e-12
9.158536e-14
2.1902951e-12
9.006507e-14
2.1423465e-12
8.8257563e-14
2.095451e-12
8.6212362e-14
2.0497168e-12
8.3973217e-14
2.0052319e-12
8.1578678e-14
1.9620662e-12
7.9062622e-14
1.9202735e-12
7.6454737e-14
1.8798934e-12
7.3780963e-14
1.8409537e-12
7.1063892e-14
1.8034709e-12
6.8323133e-14
1.7674526e-12
6.5575642e-14
1.732898e-12
6.2836013e-14
1.6997996e-12
6.011675e-14
1.6681436e-12
5.7428501e-14
1.6379114e-12
5.4780277e-14
1.6090798e-12
5.2179639e-14
1.5816222e-12
4.9632872e-14
1.5555089e-12
4.7145137e-14
1.5307077e-12
4.4720608e-14
1.5071844e-12
4.2362593e-14
1.4849033e-12
4.0073639e-14
1.4638275e-12
3.7855634e-14
1.4439191e-12
3.5709887e-14
1.4251398e-12
3.3637205e-14
1.4074508e-12
3.1637959e-14
1.3908132e-12
2.9712148e-14
1.3751882e-12
2.7859445e-14
1.3605372e-12
2.6079245e-14
1.346822e-12
2.4370711e-14
1.3340047e-12
2.2732801e-14
1.3220481e-12
2.1164309e-14
1.3109157e-12
1.9663887e-14
1.3005717e-12
1.823007e-14
1.290981e-12
1.68613e-14
1.2821093e-12
1.5555945e-14
1.2739234e-12
1.4312313e-14
1.2663908e-12
1.3128668e-14
1.2594798e-12
1.2003243e-14
1.2531601e-12
1.0934249e-14
1.2474017e-12
9.9198891e-15
1.2421762e-12
8.9583619e-15
1.2374556e-12
8.0478719e-15
1.2332133e-12
7.1866344e-15
1.2294232e-12
6.3728817e-15
1.2260605e-12
5.6048673e-15
1.2231012e-12
4.8808698e-15
1.220522e-12
4.1991966e-15
1.2183009e-12
3.5581865e-15
1.2164164e-12
2.9562118e-15
1.2148481e-12
2.3916809e-15
1.2135762e-12
1.863039e-15
1.2125819e-12
1.3687701e-15
1.2118473e-12
9.0739749e-16
1.2113549e-12
4.7748472e-16
1.2110884e-12
7.7635869e-17
1.2110318e-12
-2.9350419e-16
1.2111702e-12
-6.3725002e-16
1.2114892e-12
-9.5487545e-16
1.2119749e-12
-1.2476138e-15
1.2126145e-12
-1.5166584e-15
1.2133954e-12
-1.7631628e-15
1.2143057e-12
-1.9882415e-15
1.2153344e-12
-2.1929706e-15
1.2164705e-12
-2.3783886e-15
1.2177042e-12
-2.5454969e-15
1.2190256e-12
-2.6952607e-15
1.2204257e-12
-2.8286097e-15
1.2218959e-12
-2.9464392e-15
1.2234281e-12
-3.0496107e-15
1.2250145e-12
-3.138953e-15
1.2266479e-12
-3.215263e-15
1.2283215e-12
-3.2793061e-15
1.2300287e-12
-3.3318179e-15
1.2317636e-12
-3.3735042e-15
1.2335205e-12
-3.4050429e-15
1.235294e-12
-3.4270838e-15
1.2370792e-12
-3.4402503e-15
1.2388714e-12
-3.4451397e-15
1.2406662e-12
-3.4423241e-15
1.2424597e-12
-3.4323508e-15
1.2442481e-12
-3.4157436e-15
1.2460278e-12
-3.3930034e-15
1.2477957e-12
-3.3646087e-15
1.2495488e-12
-3.3310166e-15
1.2512844e-12
-3.2926632e-15
1.253e-12
-3.2499641e-15
1.2546933e-12
-3.2033153e-15
1.2563622e-12
-3.1530939e-15
1.2580049e-12
-3.0996586e-15
1.2596197e-12
-3.0433502e-15
1.2612051e-12
-2.9844924e-15
1.2627597e-12
-2.9233916e-15
1.2642825e-12
-2.8603384e-15
1.2657723e-12
-2.7956074e-15
1.2672283e-12
-2.7294583e-15
1.2686497e-12
-2.6621362e-15
1.270036e-12
-2.5938721e-15
1.2713866e-12
-2.5248834e-15
1.2727012e-12
-2.4553743e-15
1.2739795e-12
-2.3855361e-15
1.2752213e-12
-2.3155478e-15
1.2764267e-12
-2.2455767e-15
1.2775955e-12
-2.175779e-15
1.2787278e-12
-2.1063e-15
1.2798239e-12
-2.0372745e-15
1.280884e-12
-1.968827e-15
1.2819084e-12
-1.9010726e-15
1.2828975e-12
-1.8341171e-15
1.2838516e-12
-1.7680577e-15
1.2847713e-12
-1.7029834e-15
1.2856571e-12
-1.6389749e-15
1.2865095e-12
-1.5761057e-15
1.2873292e-12
-1.5144418e-15
1.2881168e-12
-1.4540424e-15
1.2888728e-12
-1.3949603e-15
1.2895982e-12
-1.3372421e-15
1.2902934e-12
-1.280929e-15
1.2909594e-12
-1.2260564e-15
1.2915968e-12
-1.1726549e-15
1.2922065e-12
-1.1207501e-15
1.2927891e-12
-1.0703633e-15
1.2933456e-12
-1.0215117e-15
1.2938767e-12
-9.7420895e-16
1.2943832e-12
-9.284653e-16
1.294866e-12
-8.8428784e-16
1.2953259e-12
-8.4168061e-16
1.2957637e-12
-8.0064531e-16
1.2961802e-12
-7.6118135e-16
1.2965762e-12
-7.2328647e-16
1.2969527e-12
-6.8695687e-16
1.2973104e-12
-6.5218777e-16
1.2976501e-12
-6.1897357e-16
1.2979727e-12
-5.8730864e-16
1.298279e-12
-5.571876e-16
1.2985698e-12
-5.2860628e-16
1.2988459e-12
-5.0156232e-16
1.2991081e-12
-4.7605657e-16
1.2993574e-12
-4.5209415e-16
1.2995944e-12
-4.2968675e-16
1.2998201e-12
-4.0885488e-16
1.3000352e-12
-3.896317e-16
1.3002408e-12
-3.7206751e-16
1.3004376e-12
-3.5623646e-16
1.3006267e-12
-3.4224504e-16
1.3008092e-12
-3.302448e-16
1.3009861e-12
-3.2044882e-16
1.3011587e-12
-3.131544e-16
1.3013285e-12
-3.0877319e-16
1.3014972e-12
-3.078677e-16
1.3016667e-12
-3.1119608e-16
1.3018392e-12
-3.197531e-16
1.3020172e-12
-3.3478873e-16
1.3022035e-12
-3.5773438e-16
1.3024002e-12
-3.8988856e-16
1.3026087e-12
-4.316885e-16
1.3028265e-12
-4.8092143e-16
-5.2505026e-16
-2.2428238e-13
6.5470822e-13
-4.4020979e-13
8.794224e-13
-4.9156605e-13
5.8710504e-13
-3.8010941e-13
1.5327981e-13
-1.4794316e-13
-2.5291148e-13
1.6112135e-13
-5.6978855e-13
5.1174647e-13
-7.8662452e-13
8.7860773e-13
-9.1518676e-13
1.244621e-12
-9.7398463e-13
1.5985778e-12
-9.8120313e-13
1.9332938e-12
-9.5222704e-13
2.2443254e-12
-8.9914194e-13
2.5291016e-12
-8.3103344e-13
2.7863542e-12
-7.5453234e-13
3.0157384e-12
-6.743708e-13
3.2175706e-12
-5.9385838e-13
3.3926438e-12
-5.1525898e-13
3.5420901e-12
-4.4007701e-13
3.6672784e-12
-3.6926912e-13
3.7697333e-12
-3.0339881e-13
3.8510734e-12
-2.427484e-13
3.912962e-12
-1.8740011e-13
3.9570682e-12
-1.3729489e-13
3.9850379e-12
-9.2275343e-14
3.9984703e-12
-5.2117228e-14
3.9989015e-12
-1.6552776e-14
3.9877917e-12
1.4712724e-14
3.9665161e-12
4.1989176e-14
3.9363606e-12
6.5589987e-14
3.8985197e-12
8.5824566e-14
3.8540959e-12
1.0299329e-13
3.8041015e-12
1.17384e-13
3.7494605e-12
1.2926954e-13
3.6910124e-12
1.3890631e-13
3.6295159e-12
1.4653341e-13
3.5656539e-12
1.5237241e-13
3.5000378e-12
1.566274e-13
3.4332124e-12
1.5948548e-13
3.3656612e-12
1.6111739e-13
3.2978108e-12
1.6167831e-13
3.2300356e-12
1.6130875e-13
3.1626626e-12
1.6013551e-13
3.0959753e-12
1.5827265e-13
3.0302179e-12
1.5582248e-13
2.965599e-12
1.528765e-13
2.902295e-12
1.495163e-13
2.8404538e-12
1.4581448e-13
2.780197e-12
1.4183543e-13
2.7216235e-12
1.3763611e-13
2.6648115e-12
1.3326679e-13
2.6098208e-12
1.2877167e-13
2.5566951e-12
1.2418952e-13
2.5054641e-12
1.1955422e-13
2.4561444e-12
1.1489526e-13
2.4087422e-12
1.1023824e-13
2.3632537e-12
1.0560524e-13
2.319667e-12
1.0101521e-13
2.2779629e-12
9.6484354e-14
2.2381162e-12
9.2026384e-14
2.2000962e-12
8.7652829e-14
2.1638681e-12
8.3373276e-14
2.1293931e-12
7.9195598e-14
2.0966296e-12
7.5126153e-14
2.0655332e-12
7.1169964e-14
2.036058e-12
6.7330882e-14
2.0081561e-12
6.3611728e-14
1.9817789e-12
6.0014424e-14
1.9568768e-12
5.6540107e-14
1.9333997e-12
5.3189229e-14
1.9112975e-12
4.9961653e-14
1.89052e-12
4.6856726e-14
1.8710174e-12
4.3873358e-14
1.8527401e-12
4.1010085e-14
1.8356393e-12
3.8265119e-14
1.8196667e-12
3.5636405e-14
1.8047751e-12
3.3121663e-14
1.790918e-12
3.0718425e-14
1.7780499e-12
2.8424072e-14
1.7661263e-12
2.6235863e-14
1.7551041e-12
2.4150962e-14
1.7449408e-12
2.2166461e-14
1.7355957e-12
2.0279403e-14
1.7270288e-12
1.8486796e-14
1.7192015e-12
1.6785632e-14
1.7120765e-12
1.5172899e-14
1.7056175e-12
1.3645594e-14
1.6997897e-12
1.2200733e-14
1.6945592e-12
1.083536e-14
1.6898935e-12
9.5465551e-15
1.6857612e-12
8.3314398e-15
1.6821322e-12
7.187184e-15
1.6789774e-12
6.1110102e-15
1.6762689e-12
5.1001969e-15
1.6739799e-12
4.1520827e-15
1.6720846e-12
3.2640684e-15
1.6705584e-12
2.4336191e-15
1.6693776e-12
1.6582659e-15
1.6685196e-12
9.3560694e-16
1.6679628e-12
2.6330811e-16
1.6676864e-12
-3.608967e-16
1.6676708e-12
-9.3920535e-16
1.6678969e-12
-1.473748e-15
1.6683468e-12
-1.9665871e-15
1.6690034e-12
-2.4197184e-15
1.6698502e-12
-2.8350713e-15
1.6708718e-12
-3.2145101e-15
1.6720532e-12
-3.5598352e-15
1.6733805e-12
-3.872784e-15
1.6748403e-12
-4.1550321e-15
1.6764199e-12
-4.4081947e-15
1.6781072e-12
-4.6338282e-15
1.6798911e-12
-4.8334311e-15
1.6817606e-12
-5.0084459e-15
1.6837056e-12
-5.1602604e-15
1.6857165e-12
-5.2902087e-15
1.6877842e-12
-5.3995734e-15
1.6899003e-12
-5.4895866e-15
1.6920567e-12
-5.5614314e-15
1.6942458e-12
-5.6162435e-15
1.6964607e-12
-5.6551127e-15
1.6986946e-12
-5.6790837e-15
1.7009415e-12
-5.6891578e-15
1.7031954e-12
-5.686294e-15
1.7054511e-12
-5.6714105e-15
1.7077035e-12
-5.6453858e-15
1.7099479e-12
-5.6090602e-15
1.7121801e-12
-5.5632362e-15
1.7143962e-12
-5.5086806e-15
1.7165923e-12
-5.4461246e-15
1.7187653e-12
-5.3762657e-15
1.7209119e-12
-5.2997683e-15
1.7230295e-12
-5.2172651e-15
1.7251155e-12
-5.1293578e-15
1.7271677e-12
-5.036618e-15
1.7291839e-12
-4.9395882e-15
1.7311623e-12
-4.8387828e-15
1.7331014e-12
-4.7346887e-15
1.7349997e-12
-4.627767e-15
1.736856e-12
-4.5184531e-15
1.7386693e-12
-4.4071582e-15
1.7404387e-12
-4.2942695e-15
1.7421635e-12
-4.1801511e-15
1.7438431e-12
-4.0651451e-15
1.7454771e-12
-3.9495721e-15
1.7470653e-12
-3.8337325e-15
1.7486074e-12
-3.7179067e-15
1.7501034e-12
-3.6023563e-15
1.7515535e-12
-3.4873246e-15
1.7529577e-12
-3.3730372e-15
1.7543163e-12
-3.2597028e-15
1.7556297e-12
-3.1475143e-15
1.7568983e-12
-3.0366493e-15
1.7581226e-12
-2.9272706e-15
1.7593031e-12
-2.8195271e-15
1.7604406e-12
-2.7135544e-15
1.7615356e-12
-2.6094754e-15
1.762589e-12
-2.5074008e-15
1.7636015e-12
-2.40743e-15
1.7645739e-12
-2.3096518e-15
1.7655071e-12
-2.2141448e-15
1.766402e-12
-2.120978e-15
1.7672596e-12
-2.0302113e-15
1.7680807e-12
-1.9418961e-15
1.7688664e-12
-1.8560761e-15
1.7696177e-12
-1.7727879e-15
1.7703355e-12
-1.6920613e-15
1.771021e-12
-1.61392e-15
1.7716751e-12
-1.538382e-15
1.7722989e-12
-1.4654602e-15
1.7728934e-12
-1.3951627e-15
1.7734597e-12
-1.3274939e-15
1.7739989e-12
-1.2624547e-15
1.7745119e-12
-1.2000433e-15
1.775e-12
-1.1402557e-15
1.7754641e-12
-1.0830864e-15
1.7759053e-12
-1.0285295e-15
1.7763247e-12
-9.7657906e-16
1.7767234e-12
-9.2723093e-16
1.7771023e-12
-8.8048362e-16
1.7774626e-12
-8.3634033e-16
1.7778053e-12
-7.9481104e-16
1.7781315e-12
-7.5591554e-16
1.7784423e-12
-7.1968719e-16
1.7787389e-12
-6.8617823e-16
1.7790223e-12
-6.5546628e-16
1.7792937e-12
-6.2766352e-16
1.7795544e-12
-6.0292828e-16
1.7798056e-12
-5.8148102e-16
1.7800488e-12
-5.6362434e-16
1.7802854e-12
-5.4976861e-16
1.7805171e-12
-5.4046163e-16
1.7807457e-12
-5.3642052e-16
1.780973e-12
-5.3855776e-16
1.7812013e-12
-5.4798272e-16
1.7814324e-12
-5.6594014e-16
1.7816683e-12
-5.9360091e-16
1.7819099e-12
-6.3154518e-16
1.782157e-12
-6.7874341e-16
1.7824067e-12
-7.306291e-16
-7.7356706e-16
-1.9840105e-13
8.5310927e-13
-2.1442614e-13
8.9544749e-13
2.623669e-14
3.4644221e-13
4.1656395e-13
-2.3704745e-13
8.6839203e-13
-7.0473955e-13
1.330288e-12
-1.0316845e-12
1.7758326e-12
-1.2321692e-12
2.1935974e-12
-1.3329515e-12
2.5798236e-12
-1.3602108e-12
2.9340527e-12
-1.3354323e-12
3.2570061e-12
-1.2751804e-12
3.5497025e-12
-1.1918383e-12
3.813158e-12
-1.094489e-12
4.0483372e-12
-9.8971148e-13
4.25619e-12
-8.8222367e-13
4.4377026e-12
-7.7537089e-13
4.5939332e-12
-6.714896e-13
4.7260305e-12
-5.7217438e-13
4.8352346e-12
-4.784732e-13
4.9228661e-12
-3.9103026e-13
4.9903087e-12
-3.1019102e-13
5.0389886e-12
-2.3608003e-13
5.0703529e-12
-1.6865921e-13
5.0858494e-12
-1.0777183e-13
5.0869084e-12
-5.3176219e-14
5.0749272e-12
-4.5715774e-15
5.0512554e-12
3.8384479e-14
5.0171857e-12
7.6058951e-14
4.9739468e-12
1.0882887e-13
4.9226988e-12
1.3707257e-13
4.8645291e-12
1.6116294e-13
4.800451e-12
1.8146215e-13
4.7314027e-12
1.9831783e-13
4.6582486e-12
2.1206044e-13
4.5817805e-12
2.230015e-13
4.5027203e-12
2.3143259e-13
4.4217227e-12
2.3762497e-13
4.3393786e-12
2.418296e-13
4.2562185e-12
2.4427752e-13
4.1727163e-12
2.4518053e-13
4.089293e-12
2.4473201e-13
4.0063207e-12
2.4310786e-13
3.9241257e-12
2.4046758e-13
3.8429929e-12
2.3695529e-13
3.7631685e-12
2.3270088e-13
3.6848638e-12
2.2782102e-13
3.608258e-12
2.2242024e-13
3.5335015e-12
2.1659193e-13
3.4607184e-12
2.1041929e-13
3.3900089e-12
2.0397622e-13
3.3214524e-12
1.9732819e-13
3.2551089e-12
1.90533e-13
3.1910216e-12
1.8364152e-13
3.1292185e-12
1.7669835e-13
3.0697143e-12
1.6974247e-13
3.0125118e-12
1.6280776e-13
2.9576035e-12
1.5592355e-13
2.9049727e-12
1.491151e-13
2.8545951e-12
1.4240398e-13
2.8064394e-12
1.3580852e-13
2.7604686e-12
1.2934414e-13
2.7166405e-12
1.2302364e-13
2.6749091e-12
1.1685754e-13
2.6352248e-12
1.1085432e-13
2.597535e-12
1.0502065e-13
2.5617851e-12
9.9361589e-14
2.5279188e-12
9.3880814e-14
2.4958781e-12
8.8580756e-14
2.4656046e-12
8.3462771e-14
2.4370389e-12
7.8527269e-14
2.4101218e-12
7.3773842e-14
2.3847938e-12
6.9201369e-14
2.3609958e-12
6.4808118e-14
2.3386691e-12
6.0591831e-14
2.3177557e-12
5.6549801e-14
2.2981984e-12
5.2678943e-14
2.279941e-12
4.8975856e-14
2.2629282e-12
4.5436873e-14
2.2471059e-12
4.2058115e-14
2.2324213e-12
3.883553e-14
2.2188229e-12
3.5764932e-14
2.2062602e-12
3.2842034e-14
2.1946846e-12
3.0062477e-14
2.1840483e-12
2.7421856e-14
2.1743055e-12
2.4915745e-14
2.1654114e-12
2.2539711e-14
2.1573228e-12
2.0289338e-14
2.1499979e-12
1.8160238e-14
2.1433964e-12
1.6148064e-14
2.1374793e-12
1.4248523e-14
2.1322091e-12
1.2457385e-14
2.1275496e-12
1.0770489e-14
2.1234661e-12
9.1837521e-15
2.119925e-12
7.6931762e-15
2.1168942e-12
6.2948497e-15
2.1143429e-12
4.9849532e-15
2.1122414e-12
3.7597618e-15
2.1105613e-12
2.6156477e-15
2.1092755e-12
1.5490814e-15
2.108358e-12
5.5663319e-16
2.1077838e-12
-3.6502692e-16
2.1075292e-12
-1.2191283e-15
2.1075714e-12
-2.0088013e-15
2.1078888e-12
-2.7370768e-15
2.1084606e-12
-3.4068881e-15
2.1092672e-12
-4.021071e-15
2.1102897e-12
-4.5823665e-15
2.1115103e-12
-5.0934212e-15
2.1129121e-12
-5.5567897e-15
2.1144788e-12
-5.974936e-15
2.1161952e-12
-6.3502359e-15
2.1180468e-12
-6.6849784e-15
2.1200197e-12
-6.9813683e-15
2.122101e-12
-7.2415279e-15
2.1242783e-12
-7.4674993e-15
2.1265399e-12
-7.6612464e-15
2.128875e-12
-7.8246573e-15
2.1312731e-12
-7.9595461e-15
2.1337245e-12
-8.0676554e-15
2.1362201e-12
-8.1506579e-15
2.1387512e-12
-8.2101588e-15
2.1413097e-12
-8.2476969e-15
2.1438881e-12
-8.2647477e-15
2.1464795e-12
-8.2627244e-15
2.1490771e-12
-8.2429802e-15
2.1516748e-12
-8.2068099e-15
2.154267e-12
-8.1554519e-15
2.1568484e-12
-8.0900891e-15
2.1594142e-12
-8.0118515e-15
2.1619597e-12
-7.921817e-15
2.1644809e-12
-7.821014e-15
2.1669741e-12
-7.7104218e-15
2.1694357e-12
-7.5909729e-15
2.1718627e-12
-7.4635539e-15
2.1742521e-12
-7.3290071e-15
2.1766014e-12
-7.1881318e-15
2.1789084e-12
-7.041686e-15
2.181171e-12
-6.8903874e-15
2.1833875e-12
-6.7349154e-15
2.1855563e-12
-6.5759113e-15
2.187676e-12
-6.4139806e-15
2.1897455e-12
-6.249693e-15
2.1917639e-12
-6.0835847e-15
2.1937305e-12
-5.9161593e-15
2.1956447e-12
-5.747889e-15
2.197506e-12
-5.5792156e-15
2.1993142e-12
-5.4105521e-15
2.2010691e-12
-5.2422829e-15
2.2027709e-12
-5.0747658e-15
2.2044195e-12
-4.9083326e-15
2.2060153e-12
-4.7432906e-15
2.2075586e-12
-4.5799236e-15
2.2090498e-12
-4.4184926e-15
2.2104895e-12
-4.2592371e-15
2.2118783e-12
-4.1023761e-15
2.2132169e-12
-3.9481089e-15
2.2145062e-12
-3.7966162e-15
2.2157468e-12
-3.6480611e-15
2.2169397e-12
-3.5025901e-15
2.2180859e-12
-3.360334e-15
2.2191863e-12
-3.2214085e-15
2.220242e-12
-3.0859153e-15
2.2212541e-12
-2.9539431e-15
2.2222236e-12
-2.8255683e-15
2.2231516e-12
-2.7008561e-15
2.2240394e-12
-2.5798612e-15
2.2248882e-12
-2.4626285e-15
2.225699e-12
-2.3491938e-15
2.2264731e-12
-2.239585e-15
2.2272117e-12
-2.1338225e-15
2.2279162e-12
-2.0319204e-15
2.2285876e-12
-1.9338874e-15
2.2292273e-12
-1.8397273e-15
2.2298365e-12
-1.7494404e-15
2.2304164e-12
-1.6630244e-15
2.2309684e-12
-1.5804753e-15
2.2314936e-12
-1.5017892e-15
2.2319933e-12
-1.4269636e-15
2.2324688e-12
-1.3559994e-15
2.2329214e-12
-1.2889035e-15
2.2333523e-12
-1.2256914e-15
2.2337627e-12
-1.1663914e-15
2.2341541e-12
-1.1110495e-15
2.2345277e-12
-1.0597353e-15
2.2348847e-12
-1.0125511e-15
2.2352267e-12
-9.696412e-16
2.235555e-12
-9.3120664e-16
2.235871e-12
-8.9752112e-16
2.2361764e-12
-8.6895201e-16
2.2364726e-12
-8.4598391e-16
2.2367614e-12
-8.2924193e-16
2.2370444e-12
-8.1951133e-16
2.2373236e-12
-8.1773743e-16
2.2376006e-12
-8.249854e-16
2.237877e-12
-8.4231139e-16
2.2381539e-12
-8.704678e-16
2.2384316e-12
-9.093033e-16
2.2387096e-12
-9.5672107e-16
2.238986e-12
-1.0070591e-15
-1.0473628e-15
-7.3270627e-14
9.263799e-13
3.6773388e-13
4.5444298e-13
1.092749e-12
-3.7857285e-13
1.839086e-12
-9.8338452e-13
2.5095128e-12
-1.3751664e-12
3.082217e-12
-1.6043886e-12
3.5640757e-12
-1.7140279e-12
3.9708688e-12
-1.7397446e-12
4.3182215e-12
-1.7075635e-12
4.6185723e-12
-1.6357831e-12
4.8809058e-12
-1.5375139e-12
5.1113774e-12
-1.4223099e-12
5.3140871e-12
-1.2971987e-12
5.4917536e-12
-1.167378e-12
5.6462267e-12
-1.0366967e-12
5.7788477e-12
-9.0799193e-13
5.890689e-12
-7.8333085e-13
5.9827039e-12
-6.6418932e-13
6.0558158e-12
-5.5158509e-13
6.1109647e-12
-4.4617922e-13
6.1491283e-12
-3.4835458e-13
6.1713257e-12
-2.5827744e-13
6.1786127e-12
-1.7594619e-13
6.1720713e-12
-1.0123045e-13
6.1527978e-12