/*--------------------------------*- C++ -*----------------------------------*\
| =========                 |                                                 |
| \\      /  F ield         | OpenFOAM: The Open Source CFD Toolbox           |
|  \\    /   O peration     | Version:  2406                                  |
|   \\  /    A nd           | Website:  www.openfoam.com                      |
|    \\/     M anipulation  |                                                 |
\*---------------------------------------------------------------------------*/
FoamFile
{
    version     2.0;
    format      ascii;
    arch        "LSB;label=32;scalar=64";
    class       volVectorField;
    location    "1000";
    object      C;
}
// * * * * * * * * * * * * * * * * * * * * * * * * * * * * * * * * * * * * * //

dimensions      [0 1 0 0 0 0 0];

internalField   nonuniform List<vector> 
100
(
(5e-05 0.0005 0.0005)
(0.00015 0.0005 0.0005)
(0.00025 0.0005 0.0005)
(0.00035 0.0005 0.0005)
(0.00045 0.0005 0.0005)
(0.00055 0.0005 0.0005)
(0.00065 0.0005 0.0005)
(0.00075 0.0005 0.0005)
(0.00085 0.0005 0.0005)
(0.00095 0.0005 0.0005)
(0.00105 0.0005 0.0005)
(0.00115 0.0005 0.0005)
(0.00125 0.0005 0.0005)
(0.00135 0.0005 0.0005)
(0.00145 0.0005 0.0005)
(0.00155 0.0005 0.0005)
(0.00165 0.0005 0.0005)
(0.00175 0.0005 0.0005)
(0.00185 0.0005 0.0005)
(0.00195 0.0005 0.0005)
(0.00205 0.0005 0.0005)
(0.00215 0.0005 0.0005)
(0.00225 0.0005 0.0005)
(0.00235 0.0005 0.0005)
(0.00245 0.0005 0.0005)
(0.00255 0.0005 0.0005)
(0.00265 0.0005 0.0005)
(0.00275 0.0005 0.0005)
(0.00285 0.0005 0.0005)
(0.00295 0.0005 0.0005)
(0.00305 0.0005 0.0005)
(0.00315 0.0005 0.0005)
(0.00325 0.0005 0.0005)
(0.00335 0.0005 0.0005)
(0.00345 0.0005 0.0005)
(0.00355 0.0005 0.0005)
(0.00365 0.0005 0.0005)
(0.00375 0.0005 0.0005)
(0.00385 0.0005 0.0005)
(0.00395 0.0005 0.0005)
(0.00405 0.0005 0.0005)
(0.00415 0.0005 0.0005)
(0.00425 0.0005 0.0005)
(0.00435 0.0005 0.0005)
(0.00445 0.0005 0.0005)
(0.00455 0.0005 0.0005)
(0.00465 0.0005 0.0005)
(0.00475 0.0005 0.0005)
(0.00485 0.0005 0.0005)
(0.00495 0.0005 0.0005)
(0.00505 0.0005 0.0005)
(0.00515 0.0005 0.0005)
(0.00525 0.0005 0.0005)
(0.00535 0.0005 0.0005)
(0.00545 0.0005 0.0005)
(0.00555 0.0005 0.0005)
(0.00565 0.0005 0.0005)
(0.00575 0.0005 0.0005)
(0.00585 0.0005 0.0005)
(0.00595 0.0005 0.0005)
(0.00605 0.0005 0.0005)
(0.00615 0.0005 0.0005)
(0.00625 0.0005 0.0005)
(0.00635 0.0005 0.0005)
(0.00645 0.0005 0.0005)
(0.00655 0.0005 0.0005)
(0.00665 0.0005 0.0005)
(0.00675 0.0005 0.0005)
(0.00685 0.0005 0.0005)
(0.00695 0.0005 0.0005)
(0.00705 0.0005 0.0005)
(0.00715 0.0005 0.0005)
(0.00725 0.0005 0.0005)
(0.00735 0.0005 0.0005)
(0.00745 0.0005 0.0005)
(0.00755 0.0005 0.0005)
(0.00765 0.0005 0.0005)
(0.00775 0.0005 0.0005)
(0.00785 0.0005 0.0005)
(0.00795 0.0005 0.0005)
(0.00805 0.0005 0.0005)
(0.00815 0.0005 0.0005)
(0.00825 0.0005 0.0005)
(0.00835 0.0005 0.0005)
(0.00845 0.0005 0.0005)
(0.00855 0.0005 0.0005)
(0.00865 0.0005 0.0005)
(0.00875 0.0005 0.0005)
(0.00885 0.0005 0.0005)
(0.00895 0.0005 0.0005)
(0.00905 0.0005 0.0005)
(0.00915 0.0005 0.0005)
(0.00925 0.0005 0.0005)
(0.00935 0.0005 0.0005)
(0.00945 0.0005 0.0005)
(0.00955 0.0005 0.0005)
(0.00965 0.0005 0.0005)
(0.00975 0.0005 0.0005)
(0.00985 0.0005 0.0005)
(0.00995 0.0005 0.0005)
)
;

boundaryField
{
    inlet_drug
    {
        type            calculated;
        value           uniform (0 0.0005 0.0005);
    }
    outlet
    {
        type            calculated;
        value           uniform (0.01 0.0005 0.0005);
    }
    walls
    {
        type            calculated;
        value           nonuniform List<vector> 
200
(
(5e-05 0 0.0005)
(0.00015 0 0.0005)
(0.00025 0 0.0005)
(0.00035 0 0.0005)
(0.00045 0 0.0005)
(0.00055 0 0.0005)
(0.00065 0 0.0005)
(0.00075 0 0.0005)
(0.00085 0 0.0005)
(0.00095 0 0.0005)
(0.00105 0 0.0005)
(0.00115 0 0.0005)
(0.00125 0 0.0005)
(0.00135 0 0.0005)
(0.00145 0 0.0005)
(0.00155 0 0.0005)
(0.00165 0 0.0005)
(0.00175 0 0.0005)
(0.00185 0 0.0005)
(0.00195 0 0.0005)
(0.00205 0 0.0005)
(0.00215 0 0.0005)
(0.00225 0 0.0005)
(0.00235 0 0.0005)
(0.00245 0 0.0005)
(0.00255 0 0.0005)
(0.00265 0 0.0005)
(0.00275 0 0.0005)
(0.00285 0 0.0005)
(0.00295 0 0.0005)
(0.00305 0 0.0005)
(0.00315 0 0.0005)
(0.00325 0 0.0005)
(0.00335 0 0.0005)
(0.00345 0 0.0005)
(0.00355 0 0.0005)
(0.00365 0 0.0005)
(0.00375 0 0.0005)
(0.00385 0 0.0005)
(0.00395 0 0.0005)
(0.00405 0 0.0005)
(0.00415 0 0.0005)
(0.00425 0 0.0005)
(0.00435 0 0.0005)
(0.00445 0 0.0005)
(0.00455 0 0.0005)
(0.00465 0 0.0005)
(0.00475 0 0.0005)
(0.00485 0 0.0005)
(0.00495 0 0.0005)
(0.00505 0 0.0005)
(0.00515 0 0.0005)
(0.00525 0 0.0005)
(0.00535 0 0.0005)
(0.00545 0 0.0005)
(0.00555 0 0.0005)
(0.00565 0 0.0005)
(0.00575 0 0.0005)
(0.00585 0 0.0005)
(0.00595 0 0.0005)
(0.00605 0 0.0005)
(0.00615 0 0.0005)
(0.00625 0 0.0005)
(0.00635 0 0.0005)
(0.00645 0 0.0005)
(0.00655 0 0.0005)
(0.00665 0 0.0005)
(0.00675 0 0.0005)
(0.00685 0 0.0005)
(0.00695 0 0.0005)
(0.00705 0 0.0005)
(0.00715 0 0.0005)
(0.00725 0 0.0005)
(0.00735 0 0.0005)
(0.00745 0 0.0005)
(0.00755 0 0.0005)
(0.00765 0 0.0005)
(0.00775 0 0.0005)
(0.00785 0 0.0005)
(0.00795 0 0.0005)
(0.00805 0 0.0005)
(0.00815 0 0.0005)
(0.00825 0 0.0005)
(0.00835 0 0.0005)
(0.00845 0 0.0005)
(0.00855 0 0.0005)
(0.00865 0 0.0005)
(0.00875 0 0.0005)
(0.00885 0 0.0005)
(0.00895 0 0.0005)
(0.00905 0 0.0005)
(0.00915 0 0.0005)
(0.00925 0 0.0005)
(0.00935 0 0.0005)
(0.00945 0 0.0005)
(0.00955 0 0.0005)
(0.00965 0 0.0005)
(0.00975 0 0.0005)
(0.00985 0 0.0005)
(0.00995 0 0.0005)
(5e-05 0.001 0.0005)
(0.00015 0.001 0.0005)
(0.00025 0.001 0.0005)
(0.00035 0.001 0.0005)
(0.00045 0.001 0.0005)
(0.00055 0.001 0.0005)
(0.00065 0.001 0.0005)
(0.00075 0.001 0.0005)
(0.00085 0.001 0.0005)
(0.00095 0.001 0.0005)
(0.00105 0.001 0.0005)
(0.00115 0.001 0.0005)
(0.00125 0.001 0.0005)
(0.00135 0.001 0.0005)
(0.00145 0.001 0.0005)
(0.00155 0.001 0.0005)
(0.00165 0.001 0.0005)
(0.00175 0.001 0.0005)
(0.00185 0.001 0.0005)
(0.00195 0.001 0.0005)
(0.00205 0.001 0.0005)
(0.00215 0.001 0.0005)
(0.00225 0.001 0.0005)
(0.00235 0.001 0.0005)
(0.00245 0.001 0.0005)
(0.00255 0.001 0.0005)
(0.00265 0.001 0.0005)
(0.00275 0.001 0.0005)
(0.00285 0.001 0.0005)
(0.00295 0.001 0.0005)
(0.00305 0.001 0.0005)
(0.00315 0.001 0.0005)
(0.00325 0.001 0.0005)
(0.00335 0.001 0.0005)
(0.00345 0.001 0.0005)
(0.00355 0.001 0.0005)
(0.00365 0.001 0.0005)
(0.00375 0.001 0.0005)
(0.00385 0.001 0.0005)
(0.00395 0.001 0.0005)
(0.00405 0.001 0.0005)
(0.00415 0.001 0.0005)
(0.00425 0.001 0.0005)
(0.00435 0.001 0.0005)
(0.00445 0.001 0.0005)
(0.00455 0.001 0.0005)
(0.00465 0.001 0.0005)
(0.00475 0.001 0.0005)
(0.00485 0.001 0.0005)
(0.00495 0.001 0.0005)
(0.00505 0.001 0.0005)
(0.00515 0.001 0.0005)
(0.00525 0.001 0.0005)
(0.00535 0.001 0.0005)
(0.00545 0.001 0.0005)
(0.00555 0.001 0.0005)
(0.00565 0.001 0.0005)
(0.00575 0.001 0.0005)
(0.00585 0.001 0.0005)
(0.00595 0.001 0.0005)
(0.00605 0.001 0.0005)
(0.00615 0.001 0.0005)
(0.00625 0.001 0.0005)
(0.00635 0.001 0.0005)
(0.00645 0.001 0.0005)
(0.00655 0.001 0.0005)
(0.00665 0.001 0.0005)
(0.00675 0.001 0.0005)
(0.00685 0.001 0.0005)
(0.00695 0.001 0.0005)
(0.00705 0.001 0.0005)
(0.00715 0.001 0.0005)
(0.00725 0.001 0.0005)
(0.00735 0.001 0.0005)
(0.00745 0.001 0.0005)
(0.00755 0.001 0.0005)
(0.00765 0.001 0.0005)
(0.00775 0.001 0.0005)
(0.00785 0.001 0.0005)
(0.00795 0.001 0.0005)
(0.00805 0.001 0.0005)
(0.00815 0.001 0.0005)
(0.00825 0.001 0.0005)
(0.00835 0.001 0.0005)
(0.00845 0.001 0.0005)
(0.00855 0.001 0.0005)
(0.00865 0.001 0.0005)
(0.00875 0.001 0.0005)
(0.00885 0.001 0.0005)
(0.00895 0.001 0.0005)
(0.00905 0.001 0.0005)
(0.00915 0.001 0.0005)
(0.00925 0.001 0.0005)
(0.00935 0.001 0.0005)
(0.00945 0.001 0.0005)
(0.00955 0.001 0.0005)
(0.00965 0.001 0.0005)
(0.00975 0.001 0.0005)
(0.00985 0.001 0.0005)
(0.00995 0.001 0.0005)
)
;
    }
    frontAndBack
    {
        type            empty;
    }
}


// ************************************************************************* //
