/*--------------------------------*- C++ -*----------------------------------*\
| =========                 |                                                 |
| \\      /  F ield         | OpenFOAM: The Open Source CFD Toolbox           |
|  \\    /   O peration     | Version:  2406                                  |
|   \\  /    A nd           | Website:  www.openfoam.com                      |
|    \\/     M anipulation  |                                                 |
\*---------------------------------------------------------------------------*/
FoamFile
{
    version     2.0;
    format      ascii;
    arch        "LSB;label=32;scalar=64";
    class       volScalarField;
    location    "1297";
    object      p;
}
// * * * * * * * * * * * * * * * * * * * * * * * * * * * * * * * * * * * * * //

dimensions      [0 2 -2 0 0 0 0];

internalField   nonuniform List<scalar> 
9800
(
-0.0040374037
-0.0038201802
-0.0033998521
-0.0028521245
-0.0022663852
-0.0017114127
-0.001232031
-0.00084708896
-0.00055575119
-0.00034748845
-0.00020811752
-0.0001227513
-7.8283943e-05
-6.3892698e-05
-7.0991949e-05
-9.296728e-05
-0.00012483146
-0.00016288762
-0.00020443628
-0.00024753544
-0.00029081006
-0.00033330491
-0.00037437645
-0.00041361247
-0.00045076815
-0.00048571744
-0.00051841807
-0.00054888602
-0.00057717675
-0.00060337153
-0.00062756753
-0.00064987068
-0.00067039062
-0.00068923708
-0.00070651753
-0.00072233549
-0.00073678958
-0.00074997295
-0.00076197301
-0.00077287141
-0.00078274416
-0.00079166186
-0.00079968993
-0.00080688896
-0.00081331503
-0.00081901999
-0.00082405181
-0.00082845485
-0.00083227017
-0.00083553576
-0.00083828679
-0.00084055582
-0.000842373
-0.00084376628
-0.00084476154
-0.00084538278
-0.00084565221
-0.00084559043
-0.00084521652
-0.00084454815
-0.00084360169
-0.00084239228
-0.00084093395
-0.00083923968
-0.00083732146
-0.00083519038
-0.00083285672
-0.00083032993
-0.00082761879
-0.00082473138
-0.00082167516
-0.00081845705
-0.00081508341
-0.00081156014
-0.00080789269
-0.0008040861
-0.00080014503
-0.0007960738
-0.00079187645
-0.00078755669
-0.00078311801
-0.00077856366
-0.00077389667
-0.00076911991
-0.00076423606
-0.00075924766
-0.00075415713
-0.00074896676
-0.00074367877
-0.00073829526
-0.00073281828
-0.00072724981
-0.00072159179
-0.00071584612
-0.00071001464
-0.00070409922
-0.00069810166
-0.0006920238
-0.00068586743
-0.00067963439
-0.00067332649
-0.00066694557
-0.00066049348
-0.00065397209
-0.00064738329
-0.00064072899
-0.00063401114
-0.0006272317
-0.00062039267
-0.00061349606
-0.00060654393
-0.00059953836
-0.00059248145
-0.00058537535
-0.00057822222
-0.00057102424
-0.00056378364
-0.00055650266
-0.00054918355
-0.00054182861
-0.00053444012
-0.00052702042
-0.00051957183
-0.0005120967
-0.00050459739
-0.00049707625
-0.00048953566
-0.00048197799
-0.0004744056
-0.00046682086
-0.00045922614
-0.00045162378
-0.00044401613
-0.00043640551
-0.00042879424
-0.00042118461
-0.00041357889
-0.00040597932
-0.00039838813
-0.00039080749
-0.00038323958
-0.0003756865
-0.00036815035
-0.00036063318
-0.00035313698
-0.00034566373
-0.00033821533
-0.00033079367
-0.00032340055
-0.00031603775
-0.00030870699
-0.00030140993
-0.00029414819
-0.00028692331
-0.00027973679
-0.00027259007
-0.00026548452
-0.00025842146
-0.00025140214
-0.00024442776
-0.00023749943
-0.00023061824
-0.00022378516
-0.00021700115
-0.00021026706
-0.00020358369
-0.0001969518
-0.00019037203
-0.000183845
-0.00017737124
-0.00017095121
-0.00016458531
-0.00015827387
-0.00015201714
-0.00014581533
-0.00013966853
-0.0001335768
-0.00012754012
-0.00012155838
-0.0001156314
-0.00010975893
-0.00010394063
-9.8176094e-05
-9.2464806e-05
-8.6806175e-05
-8.1199513e-05
-7.5644033e-05
-7.013885e-05
-6.468297e-05
-5.9275287e-05
-5.391455e-05
-4.8599266e-05
-4.3327424e-05
-3.809584e-05
-3.2898604e-05
-2.7721215e-05
-2.2524997e-05
-1.7265367e-05
-1.1981441e-05
-5.6204451e-06
-0.004199985
-0.003928655
-0.0034924556
-0.0029349851
-0.0023355977
-0.0017683121
-0.0012803396
-0.00088996687
-0.00059517092
-0.00038398526
-0.00024132448
-0.00015231544
-0.00010397776
-8.5670721e-05
-8.897976e-05
-0.00010741581
-0.00013606832
-0.00017127589
-0.00021034376
-0.00025131453
-0.00029278592
-0.00033376758
-0.0003735796
-0.00041177782
-0.00044808673
-0.00048235182
-0.00051450568
-0.00054454244
-0.00057249869
-0.00059843953
-0.00062244834
-0.0006446194
-0.00066505247
-0.00068384902
-0.00070110954
-0.00071693177
-0.00073140952
-0.00074463195
-0.00075668316
-0.0007676421
-0.00077758258
-0.00078657336
-0.0007946784
-0.0008019571
-0.00080846455
-0.00081425185
-0.00081936633
-0.00082385187
-0.00082774912
-0.00083109575
-0.00083392669
-0.00083627429
-0.00083816858
-0.00083963737
-0.00084070647
-0.00084139979
-0.00084173952
-0.00084174622
-0.00084143895
-0.00084083537
-0.00083995186
-0.00083880357
-0.00083740454
-0.00083576777
-0.00083390528
-0.0008318282
-0.00082954681
-0.00082707064
-0.00082440847
-0.00082156843
-0.00081855804
-0.00081538424
-0.00081205346
-0.00080857163
-0.00080494424
-0.00080117639
-0.00079727279
-0.00079323781
-0.00078907551
-0.00078478969
-0.00078038386
-0.00077586132
-0.00077122515
-0.00076647827
-0.0007616234
-0.00075666313
-0.00075159992
-0.00074643612
-0.00074117396
-0.0007358156
-0.00073036313
-0.00072481858
-0.0007191839
-0.00071346105
-0.00070765191
-0.00070175836
-0.00069578227
-0.00068972547
-0.00068358982
-0.00067737717
-0.00067108936
-0.00066472827
-0.00065829577
-0.00065179375
-0.00064522414
-0.00063858887
-0.00063188991
-0.00062512923
-0.00061830887
-0.00061143085
-0.00060449725
-0.00059751017
-0.00059047174
-0.00058338409
-0.00057624943
-0.00056906994
-0.00056184786
-0.00055458544
-0.00054728495
-0.00053994869
-0.00053257896
-0.0005251781
-0.00051774844
-0.00051029233
-0.00050281214
-0.00049531022
-0.00048778896
-0.00048025073
-0.00047269789
-0.00046513281
-0.00045755785
-0.00044997537
-0.00044238771
-0.00043479718
-0.0004272061
-0.00041961676
-0.00041203142
-0.00040445232
-0.00039688167
-0.00038932166
-0.00038177443
-0.0003742421
-0.00036672674
-0.0003592304
-0.00035175507
-0.0003443027
-0.0003368752
-0.00032947443
-0.00032210219
-0.00031476025
-0.00030745031
-0.00030017403
-0.000292933
-0.00028572875
-0.00027856279
-0.00027143651
-0.0002643513
-0.00025730845
-0.00025030919
-0.00024335472
-0.00023644613
-0.00022958449
-0.00022277076
-0.00021600589
-0.00020929071
-0.00020262601
-0.00019601252
-0.00018945089
-0.00018294171
-0.00017648548
-0.00017008267
-0.00016373365
-0.00015743874
-0.00015119817
-0.00014501211
-0.00013888067
-0.00013280387
-0.00012678165
-0.00012081389
-0.00011490039
-0.00010904085
-0.00010323489
-9.7482065e-05
-9.1781792e-05
-8.6133401e-05
-8.0536099e-05
-7.4988957e-05
-6.9490888e-05
-6.4040611e-05
-5.8636592e-05
-5.3276951e-05
-4.7959278e-05
-4.2680283e-05
-3.7435187e-05
-3.2216562e-05
-2.7009894e-05
-2.1783473e-05
-1.6524936e-05
-1.1371396e-05
-5.4565138e-06
-0.0051061534
-0.0043090147
-0.0036497012
-0.0030314482
-0.0023942076
-0.0018060196
-0.0013142987
-0.00092633375
-0.00063382317
-0.00042339943
-0.00027984984
-0.00018856221
-0.00013699332
-0.00011495135
-0.00011437081
-0.0001289974
-0.00015406562
-0.0001859938
-0.00022212179
-0.0002604981
-0.00029970567
-0.00033872348
-0.00037684391
-0.00041359853
-0.0004486848
-0.00048192087
-0.00051321397
-0.00054253531
-0.00056990106
-0.00059535827
-0.00061897454
-0.00064083035
-0.00066101354
-0.00067961527
-0.00069672718
-0.00071243944
-0.0007268394
-0.00074001073
-0.00075203293
-0.00076298102
-0.00077292554
-0.00078193252
-0.00079006362
-0.00079737635
-0.00080392421
-0.00080975699
-0.00081492093
-0.00081945901
-0.00082341114
-0.00082681437
-0.00082970311
-0.00083210931
-0.00083406262
-0.00083559057
-0.00083671871
-0.00083747077
-0.00083786874
-0.00083793305
-0.00083768263
-0.00083713506
-0.00083630662
-0.00083521239
-0.00083386636
-0.00083228147
-0.00083046972
-0.00082844221
-0.0008262092
-0.0008237802
-0.00082116398
-0.00081836869
-0.00081540184
-0.00081227037
-0.00080898073
-0.00080553886
-0.00080195029
-0.00079822011
-0.00079435306
-0.00079035356
-0.00078622568
-0.00078197324
-0.00077759979
-0.00077310867
-0.000768503
-0.0007637857
-0.00075895954
-0.00075402716
-0.00074899104
-0.00074385356
-0.000738617
-0.00073328354
-0.00072785532
-0.00072233438
-0.00071672273
-0.00071102235
-0.00070523515
-0.00069936306
-0.00069340795
-0.00068737172
-0.00068125624
-0.00067506338
-0.00066879503
-0.00066245308
-0.00065603944
-0.00064955603
-0.00064300479
-0.00063638769
-0.00062970671
-0.00062296387
-0.00061616119
-0.00060930076
-0.00060238465
-0.00059541499
-0.00058839392
-0.00058132361
-0.00057420625
-0.00056704407
-0.00055983932
-0.00055259425
-0.00054531116
-0.00053799235
-0.00053064014
-0.00052325688
-0.0005158449
-0.00050840657
-0.00050094426
-0.00049346034
-0.00048595719
-0.00047843719
-0.00047090271
-0.00046335612
-0.00045579979
-0.00044823607
-0.00044066729
-0.00043309579
-0.00042552387
-0.00041795382
-0.0004103879
-0.00040282834
-0.00039527736
-0.00038773713
-0.0003802098
-0.00037269746
-0.0003652022
-0.00035772605
-0.00035027098
-0.00034283895
-0.00033543184
-0.00032805152
-0.00032069978
-0.00031337836
-0.00030608896
-0.00029883323
-0.00029161274
-0.00028442902
-0.00027728354
-0.00027017772
-0.00026311289
-0.00025609036
-0.00024911133
-0.00024217699
-0.00023528841
-0.00022844665
-0.00022165266
-0.00021490736
-0.00020821157
-0.00020156608
-0.00019497158
-0.00018842872
-0.00018193806
-0.00017550011
-0.0001691153
-0.00016278399
-0.00015650647
-0.00015028298
-0.00014411365
-0.00013799857
-0.00013193774
-0.0001259311
-0.00011997848
-0.00011407965
-0.0001082343
-0.00010244202
-9.6702289e-05
-9.1014496e-05
-8.5377902e-05
-7.9791632e-05
-7.4254646e-05
-6.8765709e-05
-6.332334e-05
-5.7925734e-05
-5.2570655e-05
-4.7255266e-05
-4.1975864e-05
-3.6727571e-05
-3.150404e-05
-2.6295258e-05
-2.1079858e-05
-1.5866469e-05
-1.0890316e-05
-5.584704e-06
-0.0070352697
-0.0048342495
-0.0037265497
-0.0030544297
-0.0023955522
-0.0018073266
-0.0013358675
-0.00096867463
-0.00068927218
-0.00048498558
-0.00034258019
-0.00024903298
-0.00019312383
-0.00016568728
-0.00015935046
-0.00016828406
-0.00018796741
-0.0002149468
-0.00024661644
-0.00028103504
-0.00031674998
-0.00035270435
-0.00038816359
-0.00042261751
-0.00045572154
-0.00048725598
-0.00051709359
-0.00054517426
-0.00057148607
-0.00059605112
-0.00061891488
-0.00064013838
-0.00065979234
-0.00067795299
-0.00069469898
-0.00071010921
-0.00072426132
-0.00073723064
-0.00074908952
-0.00075990692
-0.00076974821
-0.00077867504
-0.0007867454
-0.00079401369
-0.00080053081
-0.00080634434
-0.00081149873
-0.00081603539
-0.00081999294
-0.00082340737
-0.00082631215
-0.00082873847
-0.00083071533
-0.00083226968
-0.00083342662
-0.00083420943
-0.00083463978
-0.00083473776
-0.00083452206
-0.00083400998
-0.00083321761
-0.00083215985
-0.00083085052
-0.00082930242
-0.00082752741
-0.00082553647
-0.00082333978
-0.00082094674
-0.00081836606
-0.0008156058
-0.00081267343
-0.00080957584
-0.00080631942
-0.0008029101
-0.00079935336
-0.00079565428
-0.00079181758
-0.00078784766
-0.0007837486
-0.0007795242
-0.00077517802
-0.0007707134
-0.00076613346
-0.00076144115
-0.00075663924
-0.00075173038
-0.00074671707
-0.0007416017
-0.00073638658
-0.00073107393
-0.00072566587
-0.00072016449
-0.00071457182
-0.00070888984
-0.00070312053
-0.00069726581
-0.00069132759
-0.00068530778
-0.00067920829
-0.00067303101
-0.00066677786
-0.00066045076
-0.00065405163
-0.00064758242
-0.00064104511
-0.00063444167
-0.00062777412
-0.0006210445
-0.00061425486
-0.00060740729
-0.00060050391
-0.00059354685
-0.00058653828
-0.00057948039
-0.0005723754
-0.00056522555
-0.0005580331
-0.00055080033
-0.00054352955
-0.00053622308
-0.00052888326
-0.00052151244
-0.00051411298
-0.00050668726
-0.00049923766
-0.00049176656
-0.00048427635
-0.00047676941
-0.00046924814
-0.00046171491
-0.0004541721
-0.00044662205
-0.00043906711
-0.00043150963
-0.0004239519
-0.00041639621
-0.00040884483
-0.0004013
-0.00039376393
-0.00038623878
-0.00037872671
-0.00037122981
-0.00036375016
-0.00035628978
-0.00034885066
-0.00034143472
-0.00033404387
-0.00032667994
-0.00031934473
-0.00031203997
-0.00030476735
-0.0002975285
-0.000290325
-0.00028315836
-0.00027603004
-0.00026894143
-0.00026189388
-0.00025488866
-0.00024792698
-0.00024100999
-0.00023413877
-0.00022731436
-0.0002205377
-0.00021380967
-0.00020713112
-0.00020050279
-0.00019392537
-0.00018739948
-0.00018092569
-0.00017450447
-0.00016813624
-0.00016182136
-0.00015556009
-0.00014935266
-0.00014319918
-0.00013709973
-0.0001310543
-0.00012506278
-0.00011912503
-0.00011324078
-0.00010740969
-0.00010163134
-9.5905209e-05
-9.0230645e-05
-8.4606895e-05
-7.9033063e-05
-7.3508092e-05
-6.8030738e-05
-6.2599529e-05
-5.7212726e-05
-5.1868268e-05
-4.6563736e-05
-4.1296355e-05
-3.6063167e-05
-3.086169e-05
-2.5689744e-05
-2.0539648e-05
-1.5439272e-05
-1.0670302e-05
-5.8903735e-06
-0.003567601
-0.0031695679
-0.0028882339
-0.0025771854
-0.0021499908
-0.0017142714
-0.0013363634
-0.001023955
-0.00077400136
-0.00058277438
-0.0004432333
-0.00034647427
-0.00028396463
-0.00024827929
-0.00023313722
-0.00023336113
-0.0002447971
-0.00026417912
-0.00028898266
-0.0003172549
-0.00034751853
-0.00037869836
-0.00041000015
-0.0004408415
-0.00047081373
-0.00049964099
-0.00052714511
-0.0005532199
-0.0005778121
-0.0006009069
-0.00062251693
-0.00064267404
-0.00066142321
-0.00067881802
-0.00069491728
-0.00070978259
-0.00072347657
-0.0007360616
-0.00074759886
-0.0007581478
-0.00076776562
-0.00077650709
-0.00078442434
-0.00079156682
-0.00079798131
-0.00080371189
-0.00080880005
-0.00081328476
-0.00081720259
-0.00082058774
-0.00082347226
-0.00082588607
-0.00082785711
-0.00082941144
-0.00083057336
-0.0008313655
-0.00083180893
-0.00083192323
-0.00083172662
-0.00083123603
-0.00083046717
-0.00082943462
-0.00082815191
-0.00082663159
-0.00082488528
-0.00082292375
-0.00082075699
-0.00081839422
-0.00081584402
-0.00081311429
-0.00081021238
-0.00080714507
-0.00080391866
-0.00080053898
-0.00079701144
-0.00079334106
-0.0007895325
-0.0007855901
-0.00078151791
-0.00077731971
-0.00077299901
-0.00076855914
-0.0007640032
-0.00075933413
-0.00075455471
-0.00074966757
-0.00074467522
-0.00073958006
-0.00073438439
-0.00072909045
-0.00072370039
-0.00071821629
-0.00071264022
-0.00070697417
-0.00070122013
-0.00069538005
-0.00068945588
-0.00068344953
-0.00067736294
-0.00067119803
-0.00066495674
-0.00065864102
-0.00065225282
-0.00064579412
-0.00063926691
-0.00063267321
-0.00062601505
-0.0006192945
-0.00061251364
-0.0006056746
-0.0005987795
-0.00059183052
-0.00058482984
-0.00057777969
-0.0005706823
-0.00056353995
-0.00055635491
-0.0005491295
-0.00054186604
-0.00053456688
-0.00052723438
-0.00051987091
-0.00051247886
-0.00050506061
-0.00049761857
-0.00049015515
-0.00048267274
-0.00047517375
-0.00046766059
-0.00046013563
-0.00045260128
-0.00044505989
-0.00043751384
-0.00042996545
-0.00042241705
-0.00041487094
-0.00040732938
-0.00039979462
-0.00039226888
-0.00038475433
-0.00037725313
-0.00036976737
-0.00036229913
-0.00035485043
-0.00034742326
-0.00034001955
-0.00033264119
-0.00032529001
-0.00031796781
-0.00031067632
-0.00030341722
-0.00029619212
-0.00028900261
-0.00028185018
-0.00027473628
-0.0002676623
-0.00026062958
-0.00025363936
-0.00024669285
-0.0002397912
-0.00023293546
-0.00022612666
-0.00021936572
-0.00021265353
-0.0002059909
-0.00019937856
-0.00019281719
-0.00018630741
-0.00017984974
-0.00017344467
-0.00016709259
-0.00016079384
-0.00015454868
-0.00014835731
-0.00014221984
-0.00013613633
-0.00013010675
-0.00012413101
-0.00011820893
-0.00011234025
-0.00010652464
-0.00010076167
-9.5050819e-05
-8.9391474e-05
-8.3782914e-05
-7.82243e-05
-7.2714673e-05
-6.7252939e-05
-6.1837873e-05
-5.6468133e-05
-5.1142317e-05
-4.5859092e-05
-4.0617488e-05
-3.541752e-05
-3.0261483e-05
-2.5155033e-05
-2.010239e-05
-1.5146515e-05
-1.0577956e-05
-6.2790021e-06
-0.0030258895
-0.0030618325
-0.0028353835
-0.002475355
-0.002088686
-0.0017209977
-0.0013943269
-0.0011163742
-0.0008882232
-0.00070787143
-0.00057067103
-0.0004704586
-0.00040090049
-0.00035614378
-0.00033100943
-0.00032106188
-0.00032261418
-0.00033267614
-0.00034886243
-0.00036930244
-0.0003925502
-0.00041748927
-0.00044326339
-0.0004692337
-0.00049493441
-0.00052003135
-0.00054428953
-0.00056754909
-0.00058970701
-0.00061070278
-0.00063050748
-0.00064911549
-0.00066653819
-0.00068279922
-0.0006979309
-0.00071197153
-0.00072496334
-0.00073695097
-0.00074798025
-0.0007580974
-0.00076734832
-0.00077577809
-0.00078343065
-0.00079034851
-0.00079657255
-0.00080214191
-0.00080709392
-0.00081146404
-0.00081528587
-0.00081859116
-0.00082140982
-0.00082376998
-0.00082569807
-0.00082721884
-0.00082835546
-0.00082912957
-0.00082956139
-0.00082966974
-0.00082947217
-0.00082898501
-0.00082822342
-0.00082720152
-0.00082593237
-0.00082442814
-0.00082270008
-0.00082075862
-0.00081861345
-0.00081627353
-0.00081374716
-0.00081104203
-0.00080816527
-0.00080512348
-0.00080192279
-0.00079856886
-0.00079506699
-0.00079142205
-0.00078763861
-0.00078372092
-0.00077967292
-0.00077549833
-0.00077120061
-0.00076678302
-0.00076224863
-0.00075760033
-0.00075284087
-0.00074797286
-0.00074299879
-0.00073792106
-0.00073274197
-0.00072746373
-0.00072208851
-0.00071661841
-0.00071105548
-0.00070540174
-0.0006996592
-0.00069382981
-0.00068791554
-0.00068191835
-0.00067584018
-0.00066968299
-0.00066344873
-0.00065713938
-0.00065075693
-0.00064430338
-0.00063778076
-0.0006311911
-0.00062453649
-0.00061781902
-0.00061104081
-0.000604204
-0.00059731076
-0.00059036331
-0.00058336385
-0.00057631465
-0.00056921797
-0.00056207612
-0.00055489142
-0.0005476662
-0.00054040283
-0.00053310368
-0.00052577114
-0.00051840762
-0.00051101553
-0.00050359729
-0.00049615534
-0.0004886921
-0.00048121
-0.00047371149
-0.00046619897
-0.00045867487
-0.0004511416
-0.00044360155
-0.0004360571
-0.0004285106
-0.00042096441
-0.00041342082
-0.00040588214
-0.00039835061
-0.00039082847
-0.00038331791
-0.00037582109
-0.00036834011
-0.00036087707
-0.00035343399
-0.00034601286
-0.00033861562
-0.00033124416
-0.00032390032
-0.0003165859
-0.00030930261
-0.00030205214
-0.00029483611
-0.00028765608
-0.00028051356
-0.00027340998
-0.00026634673
-0.00025932512
-0.00025234641
-0.00024541178
-0.00023852237
-0.00023167923
-0.00022488336
-0.00021813569
-0.00021143708
-0.00020478832
-0.00019819014
-0.00019164321
-0.00018514811
-0.00017870537
-0.00017231545
-0.00016597874
-0.00015969555
-0.00015346614
-0.00014729069
-0.00014116931
-0.00013510205
-0.00012908887
-0.00012312968
-0.00011722431
-0.00011137251
-0.00010557397
-9.9828284e-05
-9.4134995e-05
-8.8493557e-05
-8.2903357e-05
-7.7363712e-05
-7.1873886e-05
-6.6433113e-05
-6.1040648e-05
-5.5695852e-05
-5.0398364e-05
-4.5148393e-05
-3.9947229e-05
-3.4798146e-05
-2.9707966e-05
-2.4688775e-05
-1.9752831e-05
-1.4951639e-05
-1.0551973e-05
-6.7742616e-06
-0.002714764
-0.0026682509
-0.0024727718
-0.0022091813
-0.0019366632
-0.0016663594
-0.0014099142
-0.0011803938
-0.00098430579
-0.00082282815
-0.00069436746
-0.00059574255
-0.000522982
-0.00047195377
-0.00043873254
-0.00041978104
-0.00041202493
-0.00041290144
-0.0004203126
-0.00043253519
-0.00044818844
-0.00046618692
-0.0004856846
-0.00050602872
-0.00052672118
-0.00054738553
-0.00056774013
-0.00058757718
-0.00060674609
-0.00062514046
-0.000642688
-0.0006593427
-0.00067507881
-0.00068988624
-0.00070376692
-0.00071673202
-0.00072879978
-0.00073999369
-0.0007503412
-0.0007598725
-0.00076861972
-0.00077661612
-0.0007838955
-0.00079049177
-0.00079643853
-0.00080176872
-0.00080651447
-0.00081070683
-0.00081437567
-0.00081754958
-0.0008202558
-0.0008225202
-0.00082436722
-0.00082581996
-0.00082690011
-0.00082762806
-0.00082802289
-0.00082810244
-0.00082788337
-0.00082738121
-0.0008266104
-0.00082558439
-0.00082431567
-0.00082281584
-0.00082109566
-0.0008191651
-0.00081703342
-0.00081470919
-0.00081220035
-0.00080951427
-0.00080665778
-0.0008036372
-0.00080045841
-0.00079712685
-0.00079364759
-0.00079002535
-0.00078626451
-0.00078236917
-0.00077834315
-0.00077419004
-0.0007699132
-0.0007655158
-0.00076100083
-0.00075637112
-0.00075162936
-0.00074677811
-0.00074181982
-0.00073675687
-0.00073159152
-0.00072632598
-0.0007209624
-0.00071550288
-0.00070994946
-0.00070430419
-0.00069856905
-0.00069274604
-0.00068683714
-0.0006808443
-0.00067476952
-0.00066861475
-0.000662382
-0.00065607326
-0.00064969056
-0.00064323592
-0.00063671141
-0.00063011912
-0.00062346114
-0.00061673961
-0.0006099567
-0.00060311458
-0.00059621547
-0.00058926161
-0.00058225528
-0.00057519875
-0.00056809436
-0.00056094443
-0.00055375134
-0.00054651746
-0.00053924521
-0.00053193699
-0.00052459525
-0.00051722242
-0.00050982097
-0.00050239336
-0.00049494205
-0.00048746953
-0.00047997826
-0.00047247071
-0.00046494934
-0.00045741661
-0.00044987495
-0.00044232681
-0.00043477459
-0.00042722067
-0.00041966744
-0.00041211724
-0.00040457238
-0.00039703514
-0.00038950778
-0.00038199251
-0.00037449152
-0.00036700693
-0.00035954085
-0.00035209532
-0.00034467235
-0.00033727388
-0.00032990183
-0.00032255803
-0.00031524429
-0.00030796234
-0.00030071387
-0.00029350049
-0.00028632378
-0.00027918523
-0.00027208629
-0.00026502832
-0.00025801265
-0.00025104051
-0.0002441131
-0.00023723154
-0.00023039686
-0.00022361006
-0.00021687205
-0.00021018368
-0.00020354574
-0.00019695894
-0.00019042392
-0.00018394127
-0.00017751149
-0.00017113503
-0.00016481227
-0.00015854351
-0.000152329
-0.0001461689
-0.00014006333
-0.00013401232
-0.00012801586
-0.00012207385
-0.00011618614
-0.00011035252
-0.00010457271
-9.884638e-05
-9.3173162e-05
-8.7552637e-05
-8.1984369e-05
-7.646792e-05
-7.1002896e-05
-6.5589002e-05
-6.0226148e-05
-5.4914606e-05
-4.9655271e-05
-4.4450068e-05
-3.9302596e-05
-3.4219136e-05
-2.9210162e-05
-2.4292347e-05
-1.9482128e-05
-1.4837067e-05
-1.0568945e-05
-7.3508216e-06
-0.0024216063
-0.0023745505
-0.0022481071
-0.0020643041
-0.0018557977
-0.0016398003
-0.0014295788
-0.0012366359
-0.0010673936
-0.00092392824
-0.00080596637
-0.00071186342
-0.00063912055
-0.00058486059
-0.0005461831
-0.00052035996
-0.00050495845
-0.00049787138
-0.00049729187
-0.00050172089
-0.00050994851
-0.0005209981
-0.0005340825
-0.00054857263
-0.00056397
-0.0005798816
-0.0005959985
-0.00061207873
-0.00062793366
-0.00064341721
-0.00065841737
-0.00067284959
-0.00068665153
-0.00069977898
-0.00071220255
-0.000723905
-0.00073487906
-0.00074512562
-0.00075465216
-0.00076347147
-0.00077160054
-0.00077905958
-0.00078587122
-0.00079205978
-0.0007976507
-0.00080267003
-0.000807144
-0.0008110987
-0.00081455977
-0.00081755221
-0.00082010021
-0.00082222701
-0.00082395482
-0.00082530476
-0.00082629682
-0.00082694989
-0.00082728172
-0.00082730896
-0.00082704719
-0.00082651098
-0.00082571389
-0.00082466855
-0.0008233867
-0.00082187927
-0.00082015636
-0.00081822736
-0.000816101
-0.00081378532
-0.00081128781
-0.00080861541
-0.00080577453
-0.00080277115
-0.0007996108
-0.00079629862
-0.0007928394
-0.00078923758
-0.00078549734
-0.00078162255
-0.00077761686
-0.00077348367
-0.0007692262
-0.00076484749
-0.0007603504
-0.00075573767
-0.0007510119
-0.00074617557
-0.00074123107
-0.00073618072
-0.00073102673
-0.00072577129
-0.00072041651
-0.00071496448
-0.00070941723
-0.00070377678
-0.00069804515
-0.00069222431
-0.00068631627
-0.00068032299
-0.00067424649
-0.00066808874
-0.00066185178
-0.00065553763
-0.00064914835
-0.000642686
-0.00063615268
-0.00062955052
-0.00062288166
-0.00061614828
-0.00060935259
-0.00060249682
-0.00059558323
-0.00058861412
-0.0005815918
-0.00057451862
-0.00056739695
-0.00056022918
-0.00055301773
-0.00054576504
-0.00053847356
-0.00053114578
-0.00052378419
-0.00051639128
-0.00050896957
-0.00050152157
-0.00049404982
-0.00048655683
-0.00047904514
-0.00047151727
-0.00046397574
-0.00045642304
-0.00044886167
-0.00044129412
-0.00043372284
-0.00042615028
-0.00041857884
-0.00041101091
-0.00040344886
-0.00039589501
-0.00038835165
-0.00038082104
-0.00037330538
-0.00036580685
-0.00035832758
-0.00035086963
-0.00034343505
-0.00033602581
-0.00032864383
-0.00032129098
-0.00031396908
-0.00030667989
-0.00029942509
-0.00029220632
-0.00028502515
-0.00027788309
-0.0002707816
-0.00026372204
-0.00025670573
-0.00024973392
-0.00024280778
-0.00023592844
-0.00022909694
-0.00022231425
-0.00021558127
-0.00020889886
-0.00020226779
-0.00019568874
-0.00018916237
-0.00018268923
-0.00017626983
-0.0001699046
-0.00016359389
-0.00015733802
-0.00015113721
-0.00014499164
-0.0001389014
-0.00013286655
-0.00012688707
-0.0001209629
-0.0001150939
-0.00010927993
-0.00010352077
-9.7816185e-05
-9.2165933e-05
-8.6569774e-05
-8.1027507e-05
-7.5539013e-05
-7.0104321e-05
-6.4723707e-05
-5.9397835e-05
-5.4127976e-05
-4.8916326e-05
-4.3766477e-05
-3.8684092e-05
-3.3677897e-05
-2.8760932e-05
-2.3952762e-05
-1.9270661e-05
-1.4779446e-05
-1.0605469e-05
-7.986493e-06
-0.0021973157
-0.0021630792
-0.0020704765
-0.0019293606
-0.0017654341
-0.0015951661
-0.0014276235
-0.0012702585
-0.0011284774
-0.0010048978
-0.00090014723
-0.00081364608
-0.00074401869
-0.00068943096
-0.00064788566
-0.0006174139
-0.00059617722
-0.00058252102
-0.00057501505
-0.00057246048
-0.00057385644
-0.00057836706
-0.0005852987
-0.00059407983
-0.00060424097
-0.00061539627
-0.00062722807
-0.00063947448
-0.0006519195
-0.00066438523
-0.00067672559
-0.0006888214
-0.0007005764
-0.000711914
-0.00072277452
-0.00073311293
-0.00074289674
-0.0007521043
-0.00076072308
-0.00076874835
-0.00077618179
-0.0007830304
-0.00078930542
-0.00079502143
-0.00080019556
-0.00080484676
-0.00080899527
-0.00081266205
-0.0008158684
-0.00081863561
-0.00082098469
-0.00082293612
-0.00082450975
-0.00082572463
-0.00082659893
-0.0008271499
-0.00082739386
-0.00082734614
-0.00082702113
-0.00082643231
-0.00082559223
-0.00082451259
-0.00082320427
-0.00082167738
-0.00081994129
-0.00081800469
-0.00081587563
-0.00081356157
-0.00081106941
-0.00080840557
-0.00080557598
-0.00080258614
-0.00079944117
-0.00079614583
-0.00079270454
-0.00078912143
-0.00078540037
-0.00078154496
-0.00077755859
-0.00077344445
-0.00076920557
-0.00076484478
-0.00076036481
-0.00075576823
-0.00075105752
-0.00074623506
-0.00074130315
-0.000736264
-0.00073111978
-0.0007258726
-0.00072052453
-0.00071507762
-0.00070953389
-0.00070389532
-0.00069816391
-0.00069234165
-0.00068643053
-0.00068043253
-0.00067434967
-0.00066818395
-0.00066193743
-0.00065561216
-0.00064921021
-0.00064273371
-0.00063618478
-0.00062956559
-0.00062287834
-0.00061612524
-0.00060930856
-0.00060243059
-0.00059549364
-0.00058850006
-0.00058145224
-0.00057435257
-0.0005672035
-0.00056000747
-0.00055276699
-0.00054548455
-0.00053816268
-0.00053080393
-0.00052341086
-0.00051598603
-0.00050853204
-0.00050105148
-0.00049354695
-0.00048602103
-0.00047847634
-0.00047091547
-0.00046334099
-0.0004557555
-0.00044816154
-0.00044056168
-0.00043295844
-0.00042535432
-0.0004177518
-0.00041015334
-0.00040256135
-0.00039497822
-0.0003874063
-0.0003798479
-0.00037230528
-0.00036478066
-0.00035727623
-0.00034979409
-0.00034233633
-0.00033490497
-0.00032750195
-0.0003201292
-0.00031278856
-0.0003054818
-0.00029821065
-0.00029097677
-0.00028378176
-0.00027662713
-0.00026951435
-0.00026244482
-0.00025541984
-0.00024844069
-0.00024150854
-0.00023462451
-0.00022778965
-0.00022100492
-0.00021427124
-0.00020758944
-0.00020096028
-0.00019438446
-0.0001878626
-0.00018139527
-0.00017498294
-0.00016862604
-0.00016232493
-0.00015607991
-0.00014989119
-0.00014375894
-0.00013768329
-0.00013166428
-0.00012570192
-0.00011979617
-0.00011394696
-0.00010815418
-0.00010241772
-9.6737463e-05
-9.1113316e-05
-8.5545252e-05
-8.0033347e-05
-7.4577844e-05
-6.9179241e-05
-6.3838419e-05
-5.8556816e-05
-5.3336679e-05
-4.8181407e-05
-4.3096033e-05
-3.8087864e-05
-3.3167383e-05
-2.8349106e-05
-2.365416e-05
-1.9097806e-05
-1.4755678e-05
-1.0639135e-05
-8.6592494e-06
-0.0020258145
-0.0019999318
-0.0019291022
-0.0018195329
-0.0016912713
-0.0015568963
-0.0014228555
-0.0012948046
-0.0011771482
-0.0010722141
-0.00098086416
-0.00090306447
-0.00083813321
-0.00078496436
-0.00074226669
-0.00070868865
-0.00068293858
-0.00066386063
-0.00065041769
-0.00064170343
-0.00063693586
-0.00063544276
-0.00063664789
-0.00064005776
-0.00064524885
-0.00065185641
-0.0006595653
-0.00066810274
-0.00067723251
-0.0006867505
-0.00069648096
-0.00070627361
-0.00071600107
-0.00072555665
-0.00073485233
-0.00074381684
-0.00075239389
-0.00076054043
-0.00076822504
-0.00077542633
-0.00078213155
-0.00078833517
-0.0007940377
-0.00079924454
-0.00080396498
-0.00080821134
-0.00081199818
-0.00081534164
-0.00081825894
-0.00082076784
-0.00082288633
-0.00082463229
-0.00082602326
-0.00082707629
-0.00082780776
-0.0008282333
-0.00082836777
-0.00082822517
-0.00082781866
-0.00082716057
-0.00082626238
-0.00082513481
-0.0008237878
-0.00082223057
-0.00082047167
-0.000818519
-0.00081637987
-0.00081406106
-0.00081156881
-0.00080890894
-0.0008060868
-0.00080310737
-0.00079997527
-0.00079669479
-0.00079326994
-0.00078970444
-0.0007860018
-0.0007821653
-0.00077819802
-0.00077410287
-0.00076988261
-0.00076553987
-0.00076107716
-0.00075649686
-0.0007518013
-0.00074699269
-0.00074207321
-0.00073704496
-0.00073191001
-0.00072667037
-0.00072132807
-0.00071588506
-0.00071034332
-0.00070470481
-0.00069897149
-0.00069314532
-0.00068722828
-0.00068122235
-0.00067512956
-0.00066895191
-0.00066269147
-0.00065635031
-0.00064993055
-0.00064343432
-0.0006368638
-0.00063022119
-0.00062350874
-0.00061672872
-0.00060988343
-0.00060297524
-0.00059600651
-0.00058897965
-0.00058189713
-0.0005747614
-0.00056757499
-0.00056034042
-0.00055306026
-0.00054573709
-0.00053837353
-0.0005309722
-0.00052353575
-0.00051606684
-0.00050856814
-0.00050104233
-0.00049349211
-0.00048592015
-0.00047832915
-0.0004707218
-0.00046310076
-0.00045546872
-0.00044782832
-0.00044018219
-0.00043253297
-0.00042488324
-0.00041723556
-0.00040959247
-0.00040195648
-0.00039433006
-0.00038671562
-0.00037911556
-0.00037153222
-0.00036396789
-0.00035642481
-0.00034890518
-0.00034141112
-0.00033394473
-0.00032650801
-0.00031910293
-0.00031173138
-0.0003043952
-0.00029709614
-0.0002898359
-0.00028261612
-0.00027543836
-0.0002683041
-0.00026121476
-0.00025417169
-0.00024717616
-0.00024022937
-0.00023333245
-0.00022648645