/*--------------------------------*- C++ -*----------------------------------*\
| =========                 |                                                 |
| \\      /  F ield         | OpenFOAM: The Open Source CFD Toolbox           |
|  \\    /   O peration     | Version:  2406                                  |
|   \\  /    A nd           | Website:  www.openfoam.com                      |
|    \\/     M anipulation  |                                                 |
\*---------------------------------------------------------------------------*/
FoamFile
{
    version     2.0;
    format      ascii;
    arch        "LSB;label=32;scalar=64";
    class       surfaceScalarField;
    location    "1297";
    object      phi;
}
// * * * * * * * * * * * * * * * * * * * * * * * * * * * * * * * * * * * * * //

dimensions      [0 3 -1 0 0 0 0];

oriented        oriented;

internalField   nonuniform List<scalar> 
19351
(
-2.4002088e-12
2.4002088e-12
-4.5145092e-12
2.1143004e-12
-5.3389329e-12
8.2442369e-13
-5.1164137e-12
-2.2251922e-13
-4.1782229e-12
-9.3819078e-13
-2.8350518e-12
-1.3431711e-12
-1.3458568e-12
-1.489195e-12
1.0917033e-13
-1.4550271e-12
1.4266063e-12
-1.3174359e-12
2.5611542e-12
-1.1345479e-12
3.503949e-12
-9.4279487e-13
4.26579e-12
-7.6184096e-13
4.866838e-12
-6.0104801e-13
5.3303539e-12
-4.635159e-13
5.6791828e-12
-3.4882886e-13
5.9340449e-12
-2.5486211e-13
6.1128871e-12
-1.7884224e-13
6.2308105e-12
-1.1792339e-13
6.3002828e-12
-6.9472314e-14
6.3314676e-12
-3.1184754e-14
6.3325882e-12
-1.1206257e-15
6.3102856e-12
2.2302588e-14
6.269901e-12
4.038464e-14
6.2156994e-12
5.4201582e-14
6.1510751e-12
6.4624242e-14
6.0787264e-12
7.2348743e-14
6.000795e-12
7.7931425e-14
5.9189774e-12
8.1817583e-14
5.8346135e-12
8.4363917e-14
5.7487571e-12
8.585637e-14
5.6622328e-12
8.652427e-14
5.5756813e-12
8.6551496e-14
5.489596e-12
8.6085338e-14
5.4043524e-12
8.5243568e-14
5.3202323e-12
8.4120124e-14
5.2374426e-12
8.2789696e-14
5.1561312e-12
8.1311435e-14
5.0763992e-12
7.9731968e-14
4.9983114e-12
7.8087848e-14
4.9219038e-12
7.6407545e-14
4.8471908e-12
7.4713069e-14
4.7741695e-12
7.3021283e-14
4.7028245e-12
7.1344969e-14
4.6331308e-12
6.9693688e-14
4.5650563e-12
6.8074472e-14
4.498564e-12
6.6492377e-14
4.433613e-12
6.4950928e-14
4.3701606e-12
6.3452468e-14
4.3081621e-12
6.1998433e-14
4.2475726e-12
6.0589573e-14
4.1883464e-12
5.9226115e-14
4.1304385e-12
5.7907901e-14
4.0738041e-12
5.663448e-14
4.0183989e-12
5.5405192e-14
3.9641797e-12
5.421922e-14
3.911104e-12
5.3075638e-14
3.8591306e-12
5.1973438e-14
3.808219e-12
5.0911561e-14
3.7583301e-12
4.9888907e-14
3.7094258e-12
4.8904352e-14
3.661469e-12
4.7956759e-14
3.614424e-12
4.7044979e-14
3.5682562e-12
4.616786e-14
3.5229319e-12
4.5324254e-14
3.4784189e-12
4.4513013e-14
3.4346859e-12
4.3732997e-14
3.3917028e-12
4.2983072e-14
3.3494407e-12
4.2262116e-14
3.3078717e-12
4.1569016e-14
3.266969e-12
4.0902674e-14
3.226707e-12
4.0262006e-14
3.1870611e-12
3.9645943e-14
3.1480076e-12
3.9053434e-14
3.1095242e-12
3.8483445e-14
3.0715892e-12
3.7934964e-14
3.0341822e-12
3.7406996e-14
2.9972837e-12
3.6898571e-14
2.9608749e-12
3.6408739e-14
2.9249384e-12
3.5936572e-14
2.8894572e-12
3.5481166e-14
2.8544155e-12
3.5041643e-14
2.8197984e-12
3.4617147e-14
2.7855916e-12
3.4206848e-14
2.7517816e-12
3.3809941e-14
2.718356e-12
3.3425646e-14
2.6853028e-12
3.3053207e-14
2.6526109e-12
3.2691895e-14
2.6202699e-12
3.2341004e-14
2.58827e-12
3.1999852e-14
2.5566022e-12
3.1667784e-14
2.5252581e-12
3.1344167e-14
2.4942297e-12
3.1028394e-14
2.4635098e-12
3.0719877e-14
2.4330917e-12
3.0418058e-14
2.4029693e-12
3.0122397e-14
2.373137e-12
2.9832377e-14
2.3435895e-12
2.9547505e-14
2.3143222e-12
2.9267306e-14
2.2853308e-12
2.8991329e-14
2.2566117e-12
2.8719143e-14
2.2281613e-12
2.8450336e-14
2.1999768e-12
2.8184518e-14
2.1720555e-12
2.7921317e-14
2.1443951e-12
2.7660381e-14
2.1169938e-12
2.7401373e-14
2.0898498e-12
2.7143981e-14
2.0629619e-12
2.6887905e-14
2.036329e-12
2.6632866e-14
2.0099504e-12
2.6378601e-14
1.9838255e-12
2.6124865e-14
1.9579541e-12
2.5871426e-14
1.932336e-12
2.5618072e-14
1.9069714e-12
2.5364607e-14
1.8818606e-12
2.5110849e-14
1.857004e-12
2.4856631e-14
1.8324021e-12
2.4601804e-14
1.8080559e-12
2.434623e-14
1.7839661e-12
2.4089788e-14
1.7601338e-12
2.3832368e-14
1.7365599e-12
2.3573879e-14
1.7132456e-12
2.3314239e-14
1.6901923e-12
2.3053384e-14
1.667401e-12
2.2791258e-14
1.6448732e-12
2.252782e-14
1.6226101e-12
2.2263042e-14
1.6006132e-12
2.1996907e-14
1.5788838e-12
2.1729409e-14
1.5574233e-12
2.1460557e-14
1.5362329e-12
2.1190367e-14
1.515314e-12
2.0918868e-14
1.4946679e-12
2.0646098e-14
1.4742958e-12
2.0372106e-14
1.4541989e-12
2.0096951e-14
1.4343782e-12
1.98207e-14
1.4148348e-12
1.9543432e-14
1.3955695e-12
1.9265231e-14
1.3765833e-12
1.898619e-14
1.3578769e-12
1.8706411e-14
1.3394509e-12
1.8426002e-14
1.3213058e-12
1.814508e-14
1.3034421e-12
1.7863766e-14
1.2858599e-12
1.758219e-14
1.2685594e-12
1.7300486e-14
1.2515406e-12
1.7018795e-14
1.2348034e-12
1.673726e-14
1.2183473e-12
1.6456033e-14
1.202172e-12
1.6175267e-14
1.1862769e-12
1.5895122e-14
1.1706612e-12
1.5615759e-14
1.1553238e-12
1.5337342e-14
1.1402638e-12
1.506004e-14
1.1254798e-12
1.4784025e-14
1.1109703e-12
1.4509469e-14
1.0967337e-12
1.4236548e-14
1.0827683e-12
1.3965439e-14
1.069072e-12
1.3696323e-14
1.0556426e-12
1.3429377e-14
1.0424778e-12
1.3164785e-14
1.0295751e-12
1.2902728e-14
1.0169317e-12
1.2643391e-14
1.0045447e-12
1.2386957e-14
9.9241113e-13
1.2133613e-14
9.8052758e-13
1.1883544e-14
9.6889065e-13
1.1636936e-14
9.5749667e-13
1.1393978e-14
9.4634181e-13
1.1154859e-14
9.3542204e-13
1.091977e-14
9.2473314e-13
1.0688904e-14
9.1427068e-13
1.0462456e-14
9.0403006e-13
1.0240625e-14
8.9400644e-13
1.0023615e-14
8.8419481e-13
9.8116334e-15
8.7458991e-13
9.6048982e-15
8.6518628e-13
9.4036361e-15
8.5597819e-13
9.2080858e-15
8.4695969e-13
9.0185034e-15
8.3812452e-13
8.8351656e-15
8.2946615e-13
8.6583771e-15
8.2097767e-13
8.4884787e-15
8.1265181e-13
8.3258582e-15
8.0448084e-13
8.170966e-15
7.9645651e-13
8.024335e-15
7.885699e-13
7.8866101e-15
7.8081131e-13
7.7585887e-15
7.7317003e-13
7.6412834e-15
7.6563401e-13
7.5360184e-15
7.5818942e-13
7.4445904e-15
7.5081988e-13
7.3695441e-15
7.435052e-13
7.3146729e-15
7.3621926e-13
7.2859464e-15
7.2892599e-13
7.2932655e-15
7.215722e-13
7.353798e-15
7.1407397e-13
7.4982337e-15
7.0629171e-13
7.7822589e-15
6.9798443e-13
8.3072862e-15
6.8872891e-13
9.25552e-15
6.7780148e-13
1.0927427e-14
6.640397e-13
1.3761784e-14
6.4538093e-13
1.8658775e-14
2.6908444e-14
-3.4554183e-12
5.8556271e-12
-5.4369416e-12
4.0958237e-12
-5.0602698e-12
4.4775189e-13
-3.3238767e-12
-1.9589123e-12
-8.9329888e-13
-3.3687686e-12
1.805891e-12
-4.042361e-12
4.4787616e-12
-4.1620656e-12
6.9580693e-12
-3.9343348e-12
9.1669083e-12
-3.5262749e-12
1.1078647e-11
-3.0462867e-12
1.2695101e-11
-2.5592491e-12
1.403445e-11
-2.1011892e-12
1.5123e-11
-1.6895988e-12
1.599008e-11
-1.3305956e-12
1.6665048e-11
-1.0237969e-12
1.7175641e-11
-7.6545484e-13
1.754713e-11
-5.5033089e-13
1.7801978e-11
-3.7277146e-13
1.7959799e-11
-2.2729333e-13
1.8037489e-11
-1.088751e-13
1.8049474e-11
-1.3105471e-14
1.8007994e-11
6.3782575e-14
1.7923359e-11
1.2501942e-13
1.7804186e-11
1.7337477e-13
1.7657645e-11
2.1116478e-13
1.7489684e-11
2.4030969e-13
1.7305218e-11
2.6239804e-13
1.7108293e-11
2.7874227e-13
1.6902231e-11
2.904255e-13
1.6689747e-11
2.9834071e-13
1.6473048e-11
3.0322339e-13
1.6253921e-11
3.0567838e-13
1.6033804e-11
3.0620218e-13
1.5813846e-11
3.0520144e-13
1.5594958e-11
3.0300832e-13
1.5377855e-11
2.9989329e-13
1.516309e-11
2.9607588e-13
1.4951089e-11
2.9173355e-13
1.4742167e-11
2.870092e-13
1.4536557e-11
2.8201738e-13
1.4334421e-11
2.7684946e-13
1.4135864e-11
2.7157794e-13
1.3940949e-11
2.6626002e-13
1.3749702e-11
2.6094053e-13
1.3562123e-11
2.5565435e-13
1.3378187e-11
2.5042839e-13
1.3197854e-11
2.4528321e-13
1.3021072e-11
2.402343e-13
1.2847778e-11
2.3529313e-13
1.2677899e-11
2.3046804e-13
1.2511361e-11
2.2576486e-13
1.2348081e-11
2.2118749e-13
1.2187977e-11
2.1673827e-13
1.2030964e-11
2.1241838e-13
1.1876955e-11
2.0822803e-13
1.1725864e-11
2.0416671e-13
1.1577604e-11
2.0023334e-13
1.1432089e-11
1.9642636e-13
1.1289234e-11
1.9274388e-13
1.1148955e-11
1.891837e-13
1.1011168e-11
1.8574339e-13
1.0875793e-11
1.8242033e-13
1.0742749e-11
1.7921177e-13
1.0611959e-11
1.7611482e-13
1.0483345e-11
1.7312649e-13
1.0356834e-11
1.7024371e-13
1.0232354e-11
1.6746336e-13
1.0109834e-11
1.6478226e-13
9.9892058e-12
1.6219719e-13
9.8704036e-12
1.5970493e-13
9.7533634e-12
1.5730222e-13
9.6380235e-12
1.5498582e-13
9.5243244e-12
1.5275248e-13
9.4122089e-12
1.5059896e-13
9.3016218e-12
1.4852207e-13
9.1925102e-12
1.4651862e-13
9.0848233e-12
1.4458548e-13
8.9785125e-12
1.4271953e-13
8.8735313e-12
1.4091773e-13
8.7698354e-12
1.3917707e-13
8.6673825e-12
1.3749461e-13
8.5661322e-12
1.3586746e-13
8.4660462e-12
1.342928e-13
8.3670883e-12
1.3276787e-13
8.2692239e-12
1.3128997e-13
8.1724207e-12
1.2985649e-13
8.0766477e-12
1.2846488e-13
7.981876e-12
1.2711265e-13
7.8880785e-12
1.257974e-13
7.7952295e-12
1.245168e-13
7.7033051e-12
1.2326859e-13
7.6122829e-12
1.2205058e-13
7.5221421e-12
1.2086065e-13
7.4328634e-12
1.1969677e-13
7.3444288e-12
1.1855698e-13
7.2568218e-12
1.1743937e-13
7.1700272e-12
1.1634212e-13
7.084031e-12
1.1526348e-13
6.9988206e-12
1.1420177e-13
6.9143844e-12
1.1315536e-13
6.830712e-12
1.1212272e-13
6.7477941e-12
1.1110236e-13
6.6656226e-12
1.1009287e-13
6.5841901e-12
1.090929e-13
6.5034903e-12
1.0810117e-13
6.4235178e-12
1.0711645e-13
6.3442681e-12
1.0613759e-13
6.2657375e-12
1.051635e-13
6.1879229e-12
1.0419314e-13
6.1108223e-12
1.0322553e-13
6.0344339e-12
1.0225976e-13
5.958757e-12
1.0129497e-13
5.8837913e-12
1.0033036e-13
5.8095369e-12
9.9365194e-14
5.7359948e-12
9.8398783e-14
5.6631661e-12
9.7430496e-14
5.5910526e-12
9.6459755e-14
5.5196563e-12
9.5486036e-14
5.4489798e-12
9.4508871e-14
5.3790259e-12
9.352784e-14
5.3097975e-12
9.2542578e-14
5.2412981e-12
9.155277e-14
5.1735313e-12
9.0558148e-14
5.1065006e-12
8.9558492e-14
5.04021e-12
8.8553633e-14
4.9746635e-12
8.7543444e-14
4.909865e-12
8.652785e-14
4.8458188e-12
8.5506815e-14
4.7825288e-12
8.448035e-14
4.7199991e-12
8.3448505e-14
4.6582339e-12
8.2411373e-14
4.5972369e-12
8.1369087e-14
4.537012e-12
8.0321821e-14
4.4775629e-12
7.9269784e-14
4.4188931e-12
7.8213222e-14
4.361006e-12
7.7152417e-14
4.3039045e-12
7.6087681e-14
4.2475915e-12
7.5019362e-14
4.1920697e-12
7.3947838e-14
4.1373413e-12
7.2873515e-14
4.0834082e-12
7.179683e-14
4.0302721e-12
7.0718245e-14
3.9779344e-12
6.9638248e-14
3.9263958e-12
6.8557349e-14
3.875657e-12
6.7476081e-14
3.825718e-12
6.6394999e-14
3.7765786e-12
6.5314678e-14
3.728238e-12
6.423571e-14
3.6806951e-12
6.3158703e-14
3.6339482e-12
6.2084281e-14
3.5879951e-12
6.1013083e-14
3.5428334e-12
5.994576e-14
3.4984599e-12
5.8882976e-14
3.454871e-12
5.7825404e-14
3.4120627e-12
5.6773728e-14
3.3700304e-12
5.572864e-14
3.3287689e-12
5.4690839e-14
3.2882727e-12
5.366103e-14
3.2485355e-12
5.2639926e-14
3.2095506e-12
5.1628244e-14
3.1713109e-12
5.0626706e-14
3.1338085e-12
4.9636041e-14
3.097035e-12
4.8656978e-14
3.0609817e-12
4.7690254e-14
3.0256391e-12
4.6736609e-14
2.9909972e-12
4.5796792e-14
2.9570454e-12
4.4871555e-14
2.9237726e-12
4.3961661e-14
2.8911672e-12
4.3067882e-14
2.8592168e-12
4.2191003e-14
2.8279086e-12
4.1331827e-14
2.7972291e-12
4.0491176e-14
2.7671641e-12
3.9669905e-14
2.7376988e-12
3.8868901e-14
2.7088178e-12
3.8089101e-14
2.6805048e-12
3.7331502e-14
2.6527428e-12
3.6597178e-14
2.6255138e-12
3.5887309e-14
2.5987991e-12
3.5203207e-14
2.5725786e-12
3.4546364e-14
2.5468311e-12
3.3918503e-14
2.5215337e-12
3.332166e-14
2.4966621e-12
3.2758296e-14
2.4721892e-12
3.2231452e-14
2.4480855e-12
3.1744989e-14
2.4243176e-12
3.1303945e-14
2.400847e-12
3.0915111e-14
2.3776286e-12
3.0587975e-14
2.354607e-12
3.0336327e-14
2.3317119e-12
3.0181038e-14
2.3088502e-12
3.0154938e-14
2.2858926e-12
3.031137e-14
2.2626519e-12
3.0738941e-14
2.2388481e-12
3.1586111e-14
2.2140553e-12
3.3100109e-14
2.1876301e-12
3.5680731e-14
2.1586385e-12
3.9919005e-14
2.1258345e-12
4.6565735e-14
2.0880645e-12
5.6428839e-14
6.9193391e-14
-1.2084324e-12
7.0640595e-12
1.766081e-12
1.1213103e-12
5.6632991e-12
-3.4494661e-12
9.2876237e-12
-5.583237e-12
1.2497437e-11
-6.5785823e-12
1.5287697e-11
-6.8326203e-12
1.7695824e-11
-6.5701929e-12
1.977085e-11
-6.0093612e-12
2.1556446e-11
-5.311871e-12
2.3086872e-11
-4.5767124e-12
2.4388675e-11
-3.8610523e-12
2.5483756e-11
-3.1962695e-12
2.6391431e-11
-2.5972745e-12
2.7129556e-11
-2.0687202e-12
2.7715058e-11
-1.6092995e-12
2.8164118e-11
-1.214514e-12
2.8492142e-11
-8.7835528e-13
2.8713674e-11
-5.9430304e-13
2.8842274e-11
-3.5589383e-13
2.8890439e-11
-1.5704037e-13
2.8869583e-11
7.7510799e-15
2.8789986e-11
1.433792e-13
2.8660781e-11
2.5422461e-13
2.8490061e-11
3.4409519e-13
2.828495e-11
4.1627547e-13
2.805167e-11
4.7358982e-13
2.7795611e-11
5.1845665e-13
2.7521415e-11
5.5293876e-13
2.723305e-11
5.7879002e-13
2.6933893e-11
5.974974e-13
2.6626799e-11
6.1031797e-13
2.6314166e-11
6.1831128e-13
2.5998e-11
6.2236764e-13
2.5679969e-11
6.2323274e-13
2.5361448e-11
6.2152902e-13
2.5043567e-11
6.1777425e-13
2.4727246e-11
6.1239754e-13
2.4413226e-11
6.0575321e-13
2.4102103e-11
5.9813273e-13
2.3794345e-11
5.8977496e-13
2.349032e-11
5.8087485e-13
2.3190307e-11
5.7159094e-13
2.2894515e-11
5.6205161e-13
2.2603095e-11
5.5236045e-13
2.2316149e-11
5.4260064e-13
2.2033738e-11
5.3283875e-13
2.1755894e-11
5.2312777e-13
2.1482619e-11
5.1350968e-13
2.1213894e-11
5.0401752e-13
2.0949685e-11
4.9467717e-13
2.0689941e-11
4.8550864e-13
2.0434601e-11
4.7652727e-13
2.0183595e-11
4.6774464e-13
1.9936844e-11
4.5916923e-13
1.9694265e-11
4.5080708e-13
1.945577e-11
4.4266221e-13
1.9221266e-11
4.34737e-13
1.899066e-11
4.2703248e-13
1.8763855e-11
4.1954859e-13
1.8540755e-11
4.122843e-13
1.832126e-11
4.0523784e-13
1.8105274e-11
3.9840679e-13
1.7892697e-11
3.9178814e-13
1.7683434e-11
3.8537843e-13
1.7477386e-11
3.7917378e-13
1.727446e-11
3.7316998e-13
1.7074561e-11
3.6736249e-13
1.6877597e-11
3.6174655e-13
1.6683477e-11
3.5631715e-13
1.6492113e-11
3.5106913e-13
1.6303418e-11
3.4599715e-13
1.6117308e-11
3.4109577e-13
1.5933701e-11
3.3635944e-13
1.5752517e-11
3.3178257e-13
1.557368e-11
3.2735949e-13
1.5397114e-11
3.2308451e-13
1.5222747e-11
3.1895196e-13
1.5050511e-11
3.1495616e-13
1.4880337e-11
3.1109144e-13
1.4712162e-11
3.0735221e-13
1.4545924e-11
3.0373289e-13
1.4381563e-11
3.0022802e-13
1.4219024e-11
2.9683216e-13
1.4058252e-11
2.9353999e-13
1.3899195e-11
2.9034628e-13
1.3741806e-11
2.8724589e-13
1.3586037e-11
2.8423379e-13
1.3431845e-11
2.8130507e-13
1.3279187e-11
2.7845493e-13
1.3128025e-11
2.7567869e-13
1.2978322e-11
2.7297178e-13
1.2830043e-11
2.7032978e-13
1.2683155e-11
2.6774838e-13
1.2537628e-11
2.6522339e-13
1.2393435e-11
2.6275078e-13
1.2250547e-11
2.6032662e-13
1.2108942e-11
2.5794712e-13
1.1968597e-11
2.5560862e-13
1.1829491e-11
2.5330759e-13
1.1691606e-11
2.5104063e-13
1.1554924e-11
2.4880446e-13
1.1419431e-11
2.4659593e-13
1.1285112e-11
2.4441204e-13
1.1151955e-11
2.4224989e-13
1.1019949e-11
2.401067e-13
1.0889086e-11
2.3797984e-13
1.0759357e-11
2.358668e-13
1.0630755e-11
2.3376517e-13
1.0503275e-11
2.3167268e-13
1.0376914e-11
2.2958718e-13
1.0251667e-11
2.2750664e-13
1.0127533e-11
2.2542914e-13
1.000451e-11
2.2335288e-13
9.8825991e-12
2.2127618e-13
9.7618004e-12
2.1919749e-13
9.6421156e-12
2.1711534e-13
9.5235469e-12
2.1502842e-13
9.4060975e-12
2.1293547e-13
9.289771e-12
2.1083541e-13
9.1745716e-12
2.0872722e-13
9.0605041e-12
2.0661001e-13
8.9475739e-12
2.0448299e-13
8.8357866e-12
2.0234548e-13
8.7251482e-12
2.0019692e-13
8.615665e-12
1.9803681e-13
8.5073437e-12
1.9586479e-13
8.4001909e-12
1.9368059e-13
8.2942137e-12
1.9148403e-13
8.189419e-12
1.8927504e-13
8.0858139e-12
1.8705362e-13
7.9834054e-12
1.8481988e-13
7.8822005e-12
1.8257402e-13
7.782206e-12
1.8031631e-13
7.6834286e-12
1.7804714e-13
7.5858749e-12
1.7576694e-13
7.4895511e-12
1.7347624e-13
7.3944631e-12
1.7117566e-13
7.3006166e-12
1.6886586e-13
7.2080169e-12
1.665476e-13
7.1166687e-12
1.642217e-13
7.0265765e-12
1.6188904e-13
6.9377441e-12
1.5955058e-13
6.8501751e-12
1.5720732e-13
6.7638721e-12
1.5486032e-13
6.6788375e-12
1.525107e-13
6.5950728e-12
1.5015963e-13
6.5125792e-12
1.4780832e-13
6.4313569e-12
1.4545804e-13
6.3514055e-12
1.4311009e-13
6.272724e-12
1.407658e-13
6.1953105e-12
1.3842655e-13
6.1191625e-12
1.3609375e-13
6.0442766e-12
1.3376884e-13
5.9706488e-12
1.3145327e-13
5.8982739e-12
1.2914856e-13
5.8271464e-12
1.268562e-13
5.7572595e-12
1.2457773e-13
5.6886058e-12
1.223147e-13
5.6211771e-12
1.2006869e-13
5.554964e-12
1.1784126e-13
5.4899567e-12
1.1563404e-13
5.4261441e-12
1.1344861e-13
5.3635145e-12
1.1128661e-13
5.3020551e-12
1.0914968e-13
5.2417523e-12
1.0703945e-13
5.1825915e-12
1.0495759e-13
5.1245572e-12
1.0290578e-13
5.0676332e-12
1.0088571e-13
5.011802e-12
9.8899109e-14
4.9570453e-12
9.6947716e-14
4.9033438e-12
9.5033318e-14
4.8506772e-12
9.3157742e-14
4.7990242e-12
9.1322875e-14
4.7483624e-12
8.9530682e-14
4.6986683e-12
8.7783222e-14
4.6499171e-12
8.6082682e-14
4.6020829e-12
8.443141e-14
4.5551383e-12
8.2831969e-14
4.5090543e-12
8.1287197e-14
4.4638003e-12
7.98003e-14
4.4193439e-12
7.8374963e-14
4.37565e-12
7.7015521e-14
4.3326811e-12
7.5727176e-14
4.2903963e-12
7.4516328e-14
4.2487502e-12
7.339104e-14
4.2076924e-12
7.2361748e-14
4.1671652e-12
7.144235e-14
4.1271012e-12
7.0651926e-14
4.08742e-12
7.0017519e-14
4.0480224e-12
6.9578705e-14
4.0087822e-12
6.9395135e-14
3.9695346e-12
6.955891e-14
3.9300592e-12
7.0214404e-14
3.8900568e-12
7.1588455e-14
3.8491247e-12
7.4032263e-14
3.8067371e-12
7.8068265e-14
3.7622583e-12
8.4397829e-14
3.7150562e-12
9.376789e-14
3.6650184e-12
1.064666e-13
1.2126254e-13
1.4417504e-11
-7.3534449e-12
2.3486873e-11
-7.9480579e-12
2.8372738e-11
-8.3353314e-12
3.1389724e-11
-8.6002233e-12
3.3287526e-11
-8.4763845e-12
3.4506802e-11
-8.0518957e-12
3.5360289e-11
-7.4236806e-12
3.6024354e-11
-6.6734255e-12
3.6583182e-11
-5.8706996e-12
3.7073427e-11
-5.0669567e-12
3.7508438e-11
-4.2960631e-12
3.7890545e-11
-3.5783764e-12
3.821778e-11
-2.9245098e-12
3.8487387e-11
-2.3383278e-12
3.8697399e-11
-1.8193106e-12
3.884718e-11
-1.3642953e-12
3.8937494e-11
-9.6866896e-13
3.8970335e-11
-6.2714416e-13
3.8948674e-11
-3.342331e-13
3.8876221e-11
-8.4587389e-14
3.875712e-11
1.2685216e-13
3.8595672e-11
3.0482682e-13
3.8396264e-11
4.5363246e-13
3.8163268e-11
5.7709125e-13
3.7900927e-11
6.7861671e-13
3.761327e-11
7.6124656e-13
3.7304058e-11
8.2766869e-13
3.6976748e-11
8.8024868e-13
3.663448e-11
9.2105852e-13
3.6280072e-11
9.5190483e-13
3.5916035e-11
9.7435573e-13
3.554458e-11
9.8976636e-13
3.5167645e-11
9.993027e-13
3.4786914e-11
1.0039637e-12
3.4403841e-11
1.0046016e-12
3.4019675e-11
1.0019403e-12
3.363548e-11
9.965925e-13
3.3252159e-11
9.8907437e-13
3.2870472e-11
9.7981936e-13
3.2491057e-11
9.6919006e-13
3.2114443e-11
9.5748872e-13
3.1741068e-11
9.4496653e-13
3.1371288e-11
9.318316e-13
3.1005392e-11
9.1825586e-13
3.0643612e-11
9.0438106e-13
3.0286127e-11
8.9032373e-13
2.9933075e-11
8.7617953e-13
2.9584558e-11
8.6202681e-13
2.9240646e-11
8.4792963e-13
2.8901383e-11
8.3394026e-13
2.856679e-11
8.2010123e-13
2.823687e-11
8.064471e-13
2.7911609e-11
7.9300579e-13
2.7590979e-11
7.7979973e-13
2.7274939e-11
7.6684685e-13
2.696344e-11
7.5416126e-13
2.6656423e-11
7.4175392e-13
2.6353822e-11
7.296331e-13
2.6055566e-11
7.1780483e-13
2.5761577e-11
7.0627315e-13
2.5471775e-11
6.9504049e-13
2.5186074e-11
6.841078e-13
2.4904387e-11
6.7347478e-13
2.4626625e-11
6.6314003e-13
2.4352698e-11
6.5310118e-13
2.4082513e-11
6.4335501e-13
2.3815978e-11
6.3389755e-13
2.3553e-11
6.2472415e-13
2.3293488e-11
6.158296e-13
2.3037349e-11
6.0720816e-13
2.2784492e-11
5.9885366e-13
2.2534829e-11
5.9075952e-13
2.2288269e-11
5.8291885e-13
2.2044727e-11
5.7532448e-13
2.1804118e-11
5.6796899e-13
2.1566357e-11
5.6084478e-13
2.1331365e-11
5.5394412e-13
2.1099062e-11
5.4725913e-13
2.0869372e-11
5.4078187e-13
2.064222e-11
5.3450437e-13
2.0417534e-11
5.2841861e-13
2.0195245e-11
5.2251659e-13
1.9975287e-11
5.1679034e-13
1.9757595e-11
5.1123195e-13
1.9542108e-11
5.0583357e-13
1.9328766e-11
5.0058745e-13
1.9117514e-11
4.9548591e-13
1.8908298e-11
4.9052141e-13
1.8701066e-11
4.8568655e-13
1.8495771e-11
4.8097403e-13
1.8292366e-11
4.7637673e-13
1.8090808e-11
4.7188765e-13
1.7891057e-11
4.6749999e-13
1.7693073e-11
4.6320708e-13
1.7496821e-11
4.5900244e-13
1.7302268e-11
4.5487976e-13
1.7109382e-11
4.508329e-13
1.6918135e-11
4.4685591e-13
1.67285e-11
4.4294302e-13
1.6540452e-11
4.3908864e-13
1.6353969e-11
4.3528738e-13
1.6169031e-11
4.3153401e-13
1.5985619e-11
4.278235e-13
1.5803718e-11
4.2415103e-13
1.5623313e-11
4.2051193e-13
1.5444391e-11
4.1690174e-13
1.5266941e-11
4.133162e-13
1.5090955e-11
4.0975121e-13
1.4916425e-11
4.0620287e-13
1.4743345e-11
4.0266749e-13
1.457171e-11
3.9914154e-13
1.4401517e-11
3.9562168e-13
1.4232766e-11
3.9210477e-13
1.4065454e-11
3.8858785e-13
1.3899583e-11
3.8506816e-13
1.3735156e-11
3.8154309e-13
1.3572174e-11
3.7801026e-13
1.3410642e-11
3.7446743e-13
1.3250565e-11
3.7091257e-13
1.3091948e-11
3.6734383e-13
1.2934798e-11
3.6375953e-13
1.2779123e-11
3.6015819e-13
1.262493e-11
3.5653847e-13
1.2472228e-11
3.5289925e-13
1.2321025e-11
3.4923955e-13
1.2171331e-11
3.4555857e-13
1.2023156e-11
3.418557e-13
1.187651e-11
3.3813048e-13
1.1731402e-11
3.3438261e-13
1.1587844e-11
3.3061196e-13
1.1445845e-11
3.2681856e-13
1.1305417e-11
3.230026e-13
1.1166569e-11
3.1916441e-13
1.1029311e-11
3.153045e-13
1.0893655e-11
3.1142348e-13
1.0759609e-11
3.0752213e-13
1.0627183e-11
3.0360138e-13
1.0496387e-11
2.9966225e-13
1.0367228e-11
2.9570593e-13
1.0239716e-11
2.9173372e-13
1.0113858e-11
2.8774704e-13
9.9896615e-12
2.8374742e-13
9.8671323e-12
2.797365e-13
9.7462766e-12
2.7571605e-13
9.6270994e-12
2.7168789e-13
9.509605e-12
2.6765399e-13
9.393797e-12
2.6361637e-13
9.2796779e-12
2.5957716e-13
9.1672494e-12
2.5553854e-13
9.0565124e-12
2.515028e-13
8.9474667e-12
2.4747227e-13
8.8401111e-12
2.4344935e-13
8.7344434e-12
2.3943652e-13
8.6304603e-12
2.354363e-13
8.5281577e-12
2.3145125e-13
8.4275299e-12
2.2748398e-13
8.3285704e-12
2.2353717e-13
8.2312716e-12
2.196135e-13
8.1356246e-12
2.157157e-13
8.0416193e-12
2.1184654e-13
7.9492446e-12
2.0800881e-13
7.8584879e-12
2.0420533e-13
7.7693355e-12
2.0043894e-13
7.6817727e-12
1.9671252e-13
7.5957832e-12
1.9302894e-13
7.5113496e-12
1.8939114e-13
7.4284533e-12
1.8580208e-13
7.3470743e-12
1.8226472e-13
7.2671914e-12
1.7878209e-13
7.1887818e-12
1.7535727e-13
7.1118217e-12
1.7199338e-13
7.0362859e-12
1.6869363e-13
6.9621474e-12
1.6546131e-13
6.8893782e-12
1.6229986e-13
6.8179486e-12
1.5921284e-13
6.7478273e-12
1.5620405e-13
6.6789812e-12
1.5327752e-13
6.6113755e-12
1.5043763e-13
6.5449735e-12
1.4768921e-13
6.4797361e-12
1.4503767e-13
6.4156219e-12
1.4248918e-13
6.3525865e-12
1.4005094e-13
6.2905821e-12
1.3773151e-13
6.2295571e-12
1.3554132e-13
6.1694548e-12
1.3349338e-13
6.1102123e-12
1.3160429e-13
6.0517588e-12
1.2989581e-13
5.9940135e-12
1.283972e-13
5.9368822e-12
1.271488e-13
5.8802532e-12
1.2620774e-13
5.8239916e-12
1.2565672e-13
5.767933e-12
1.2561757e-13
5.7118758e-12
1.2627159e-13
5.6555764e-12
1.2788788e-13
5.5987506e-12
1.3085802e-13
5.5410927e-12
1.3572623e-13
5.482323e-12
1.4316754e-13
5.4222775e-12
1.5381337e-13
5.3611426e-12
1.6760147e-13
1.8342376e-13
6.8743141e-11
-1.0420856e-12
6.4373411e-11
-3.578328e-12
6.1126583e-11
-5.0885035e-12
5.8569143e-11
-6.0427835e-12
5.6566912e-11
-6.4741538e-12
5.4995758e-11
-6.4807416e-12
5.377333e-11
-6.2012518e-12
5.2836713e-11
-5.7368087e-12
5.2126844e-11
-5.1608308e-12
5.1590772e-11
-4.530885e-12
5.1183913e-11
-3.8892038e-12
5.0869608e-11
-3.2640715e-12
5.0618246e-11
-2.6731479e-12
5.0406428e-11
-2.1265103e-12
5.0216061e-11
-1.6289431e-12
5.003344e-11
-1.1816738e-12
4.9848438e-11
-7.8366763e-13
4.9653809e-11
-4.3251517e-13
4.9444577e-11
-1.2500079e-13
4.9217515e-11
1.4247476e-13
4.8970754e-11
3.7361301e-13
4.870355e-11
5.7203077e-13
4.8416009e-11
7.4117304e-13
4.810882e-11
8.8428084e-13
4.7783075e-11
1.0043618e-12
4.7440144e-11
1.104177e-12
4.7081571e-11
1.1862416e-12
4.6708989e-11
1.2528314e-12
4.6324055e-11
1.3059922e-12
4.5928407e-11
1.347553e-12
4.5523624e-11
1.3791389e-12
4.5111203e-11
1.4021868e-12
4.4692546e-11
1.41796e-12
4.4268946e-11
1.4275637e-12
4.3841587e-11
1.4319601e-12
4.3411545e-11
1.4319831e-12
4.2979785e-11
1.428352e-12
4.2547174e-11
1.421685e-12
4.2114483e-11
1.4125111e-12
4.1682391e-11
1.4012816e-12
4.12515e-11
1.3883804e-12
4.0822333e-11
1.374133e-12
4.039535e-11
1.358815e-12
3.9970947e-11
1.3426589e-12
3.9549467e-11
1.3258612e-12
3.9131203e-11
1.3085873e-12
3.8716406e-11
1.2909767e-12
3.8305286e-11
1.2731466e-12
3.789802e-11
1.2551959e-12
3.7494752e-11
1.2372081e-12
3.70956e-11
1.2192534e-12
3.6700656e-11
1.2013909e-12
3.6309991e-11
1.1836707e-12
3.5923656e-11
1.1661349e-12
3.5541684e-11
1.1488188e-12
3.5164093e-11
1.1317521e-12
3.4790887e-11
1.1149599e-12
3.4422057e-11
1.0984626e-12
3.4057585e-11
1.0822774e-12
3.369744e-11
1.0664179e-12
3.3341585e-11
1.0508952e-12
3.2989976e-11
1.0357177e-12
3.2642559e-11
1.0208918e-12
3.2299277e-11
1.0064218e-12
3.1960068e-11
9.9231014e-13
3.1624865e-11
9.7855789e-13
3.1293598e-11
9.6516454e-13
3.0966194e-11
9.5212834e-13
3.0642577e-11
9.3944638e-13
3.032267e-11
9.2711472e-13
3.0006396e-11
9.1512848e-13
2.9693673e-11
9.0348198e-13
2.9384423e-11
8.9216878e-13
2.9078566e-11
8.811818e-13
2.8776022e-11
8.7051339e-13
2.8476711e-11
8.6015542e-13
2.8180556e-11
8.5009933e-13
2.7887479e-11
8.4033619e-13
2.7597404e-11
8.3085678e-13
2.7310256e-11
8.2165163e-13
2.7025964e-11
8.1271109e-13
2.6744455e-11
8.0402534e-13
2.6465661e-11
7.9558447e-13
2.6189515e-11
7.8737849e-13
2.5915951e-11
7.793974e-13
2.5644907e-11
7.7163117e-13
2.5376323e-11
7.6406983e-13
2.5110141e-11
7.5670345e-13
2.4846305e-11
7.4952217e-13
2.4584763e-11
7.4251626e-13
2.4325464e-11
7.3567608e-13
2.4068359e-11
7.2899213e-13
2.3813404e-11
7.2245509e-13
2.3560556e-11
7.1605576e-13
2.3309773e-11
7.0978516e-13
2.3061018e-11
7.0363446e-13
2.2814256e-11
6.9759505e-13
2.2569453e-11
6.9165852e-13
2.232658e-11
6.8581666e-13
2.2085607e-11
6.8006149e-13
2.1846509e-11
6.7438524e-13
2.1609263e-11
6.6878039e-13
2.1373847e-11
6.6323963e-13
2.1140242e-11
6.577559e-13
2.0908431e-11
6.5232238e-13
2.06784e-11
6.4693248e-13
2.0450137e-11
6.4157988e-13
2.022363e-11
6.3625848e-13
1.999887e-11
6.3096245e-13
1.9775851e-11
6.2568621e-13
1.9554568e-11
6.2042443e-13
1.9335018e-11
6.1517205e-13
1.9117198e-11
6.0992424e-13
1.890111e-11
6.0467647e-13
1.8686754e-11
5.9942442e-13
1.8474133e-11
5.9416407e-13
1.8263251e-11
5.8889165e-13
1.8054115e-11
5.8360365e-13
1.7846731e-11
5.7829682e-13
1.7641106e-11
5.7296818e-13
1.7437251e-11
5.67615e-13
1.7235174e-11
5.6223482e-13
1.7034887e-11
5.5682545e-13
1.6836402e-11
5.5138494e-13
1.663973e-11
5.4591161e-13
1.6444884e-11
5.4040404e-13
1.6251879e-11
5.3486106e-13
1.6060728e-11
5.2928175e-13
1.5871445e-11
5.2366544e-13
1.5684045e-11
5.1801172e-13
1.5498543e-11
5.1232041e-13
1.5314954e-11
5.0659157e-13
1.5133293e-11
5.0082551e-13
1.4953575e-11
4.9502276e-13
1.4775814e-11
4.8918408e-13
1.4600026e-11
4.8331045e-13
1.4426224e-11
4.7740308e-13
1.4254423e-11
4.7146336e-13
1.4084636e-11
4.6549293e-13
1.3916876e-11
4.5949359e-13
1.3751156e-11
4.5346735e-13
1.3587487e-11
4.4741641e-13
1.342588e-11
4.4134314e-13
1.3266346e-11
4.3525009e-13
1.3108894e-11
4.2913995e-13
1.2953532e-11
4.2301559e-13
1.2800269e-11
4.1688004e-13
1.264911e-11
4.1073645e-13
1.250006e-11
4.0458809e-13
1.2353124e-11
3.984384e-13
1.2208306e-11
3.9229089e-13
1.2065606e-11
3.8614923e-13
1.1925025e-11
3.8001714e-13
1.1786563e-11
3.7389847e-13
1.1650217e-11
3.6779716e-13
1.1515984e-11
3.6171722e-13
1.1383858e-11
3.5566273e-13
1.1253834e-11
3.4963786e-13
1.1125903e-11
3.4364681e-13
1.1000056e-11
3.3769387e-13
1.0876281e-11
3.3178336e-13
1.0754567e-11
3.2591968e-13
1.0634898e-11
3.2010724e-13
1.051726e-11
3.1435051e-13
1.0401635e-11
3.0865401e-13
1.0288004e-11
3.030223e-13
1.0176346e-11
2.9745999e-13
1.0066639e-11
2.9197174e-13
9.9588591e-12
2.8656227e-13
9.85298e-12
2.8123637e-13
9.7489744e-12
2.7599892e-13
9.6468131e-12
2.7085491e-13
9.546465e-12
2.6580947e-13
9.4478969e-12
2.6086789e-13
9.3510741e-12
2.5603568e-13
9.2559595e-12
2.5131865e-13
9.1625141e-12
2.4672296e-13
9.0706964e-12
2.4225525e-13
8.9804629e-12
2.3792276e-13
8.891767e-12
2.3373356e-13
8.8045595e-12
2.2969674e-13
8.7187876e-12
2.2582279e-13
8.634395e-12
2.2212407e-13
8.5513209e-12
2.1861542e-13
8.4694992e-12
2.1531508e-13
8.3888576e-12
2.1224593e-13
8.309316e-12
2.0943739e-13
8.2307852e-12
2.0692805e-13
8.1531643e-12
2.0476965e-13
8.0763391e-12
2.0303295e-13
8.0001795e-12
2.0181634e-13
7.9245387e-12
2.0125834e-13
7.8492554e-12
2.0155497e-13
7.7741613e-12
2.0298199e-13
7.6991007e-12
2.0591856e-13
7.6239644e-12
2.1086251e-13
7.5487379e-12
2.1839414e-13
7.4735273e-12
2.2902392e-13
7.3985842e-12
2.4254463e-13
2.5892344e-13
7.4653418e-11
-6.4100361e-13
7.3187529e-11
-2.1124392e-12
7.1330571e-11
-3.2315455e-12
6.9340055e-11
-4.0522669e-12
6.7434804e-11
-4.5689033e-12
6.5730062e-11
-4.7759994e-12
6.4255815e-11
-4.7270044e-12
6.3007061e-11
-4.4880555e-12
6.1963597e-11
-4.1173663e-12
6.1097354e-11
-3.6646416e-12
6.0377943e-11
-3.1697934e-12
5.977619e-11
-2.6623186e-12
5.9265844e-11
-2.1628016e-12
5.8824288e-11
-1.6849544e-12
5.8432672e-11
-1.2373273e-12
5.8075693e-11
-8.2469465e-13
5.7741201e-11
-4.4917531e-13
5.741969e-11
-1.1100408e-13
5.710387e-11
1.9081928e-13
5.6788364e-11
4.5798034e-13
5.6469338e-11
6.9263898e-13
5.6144118e-11
8.9725133e-13
5.5810909e-11
1.0743816e-12
5.5468602e-11
1.2265882e-12
5.511661e-11
1.3563531e-12
5.475475e-11
1.4660372e-12
5.4383138e-11
1.5578538e-12
5.4002115e-11
1.6338541e-12
5.3612186e-11
1.6959215e-12
5.3213968e-11
1.7457707e-12
5.2808155e-11
1.7849519e-12
5.2395485e-11
1.8148572e-12
5.1976716e-11
1.836729e-12
5.1552609e-11
1.8516702e-12
5.1123915e-11
1.8606546e-12
5.069136e-11
1.8645382e-12
5.0255642e-11
1.8640697e-12
4.9817425e-11
1.8599019e-12
4.9377334e-11
1.8526019e-12
4.8935955e-11
1.8426608e-12
4.8493833e-11
1.830503e-12
4.8051471e-11
1.8164944e-12
4.7609336e-11
1.8009504e-12
4.7167853e-11
1.7841421e-12
4.6727411e-11
1.7663031e-12