/*--------------------------------*- C++ -*----------------------------------*\
| =========                 |                                                 |
| \\      /  F ield         | OpenFOAM: The Open Source CFD Toolbox           |
|  \\    /   O peration     | Version:  2406                                  |
|   \\  /    A nd           | Website:  www.openfoam.com                      |
|    \\/     M anipulation  |                                                 |
\*---------------------------------------------------------------------------*/
FoamFile
{
    version     2.0;
    format      ascii;
    arch        "LSB;label=32;scalar=64";
    class       volVectorField;
    location    "0";
    object      C;
}
// * * * * * * * * * * * * * * * * * * * * * * * * * * * * * * * * * * * * * //

dimensions      [0 1 0 0 0 0 0];

internalField   nonuniform List<vector> 
1000
(
(5e-05 5e-05 5e-06)
(0.00015 5e-05 5e-06)
(0.00025 5e-05 5e-06)
(0.00035 5e-05 5e-06)
(0.00045 5e-05 5e-06)
(0.00055 5e-05 5e-06)
(0.00065 5e-05 5e-06)
(0.00075 5e-05 5e-06)
(0.00085 5e-05 5e-06)
(0.00095 5e-05 5e-06)
(0.00105 5e-05 5e-06)
(0.00115 5e-05 5e-06)
(0.00125 5e-05 5e-06)
(0.00135 5e-05 5e-06)
(0.00145 5e-05 5e-06)
(0.00155 5e-05 5e-06)
(0.00165 5e-05 5e-06)
(0.00175 5e-05 5e-06)
(0.00185 5e-05 5e-06)
(0.00195 5e-05 5e-06)
(0.00205 5e-05 5e-06)
(0.00215 5e-05 5e-06)
(0.00225 5e-05 5e-06)
(0.00235 5e-05 5e-06)
(0.00245 5e-05 5e-06)
(0.00255 5e-05 5e-06)
(0.00265 5e-05 5e-06)
(0.00275 5e-05 5e-06)
(0.00285 5e-05 5e-06)
(0.00295 5e-05 5e-06)
(0.00305 5e-05 5e-06)
(0.00315 5e-05 5e-06)
(0.00325 5e-05 5e-06)
(0.00335 5e-05 5e-06)
(0.00345 5e-05 5e-06)
(0.00355 5e-05 5e-06)
(0.00365 5e-05 5e-06)
(0.00375 5e-05 5e-06)
(0.00385 5e-05 5e-06)
(0.00395 5e-05 5e-06)
(0.00405 5e-05 5e-06)
(0.00415 5e-05 5e-06)
(0.00425 5e-05 5e-06)
(0.00435 5e-05 5e-06)
(0.00445 5e-05 5e-06)
(0.00455 5e-05 5e-06)
(0.00465 5e-05 5e-06)
(0.00475 5e-05 5e-06)
(0.00485 5e-05 5e-06)
(0.00495 5e-05 5e-06)
(0.00505 5e-05 5e-06)
(0.00515 5e-05 5e-06)
(0.00525 5e-05 5e-06)
(0.00535 5e-05 5e-06)
(0.00545 5e-05 5e-06)
(0.00555 5e-05 5e-06)
(0.00565 5e-05 5e-06)
(0.00575 5e-05 5e-06)
(0.00585 5e-05 5e-06)
(0.00595 5e-05 5e-06)
(0.00605 5e-05 5e-06)
(0.00615 5e-05 5e-06)
(0.00625 5e-05 5e-06)
(0.00635 5e-05 5e-06)
(0.00645 5e-05 5e-06)
(0.00655 5e-05 5e-06)
(0.00665 5e-05 5e-06)
(0.00675 5e-05 5e-06)
(0.00685 5e-05 5e-06)
(0.00695 5e-05 5e-06)
(0.00705 5e-05 5e-06)
(0.00715 5e-05 5e-06)
(0.00725 5e-05 5e-06)
(0.00735 5e-05 5e-06)
(0.00745 5e-05 5e-06)
(0.00755 5e-05 5e-06)
(0.00765 5e-05 5e-06)
(0.00775 5e-05 5e-06)
(0.00785 5e-05 5e-06)
(0.00795 5e-05 5e-06)
(0.00805 5e-05 5e-06)
(0.00815 5e-05 5e-06)
(0.00825 5e-05 5e-06)
(0.00835 5e-05 5e-06)
(0.00845 5e-05 5e-06)
(0.00855 5e-05 5e-06)
(0.00865 5e-05 5e-06)
(0.00875 5e-05 5e-06)
(0.00885 5e-05 5e-06)
(0.00895 5e-05 5e-06)
(0.00905 5e-05 5e-06)
(0.00915 5e-05 5e-06)
(0.00925 5e-05 5e-06)
(0.00935 5e-05 5e-06)
(0.00945 5e-05 5e-06)
(0.00955 5e-05 5e-06)
(0.00965 5e-05 5e-06)
(0.00975 5e-05 5e-06)
(0.00985 5e-05 5e-06)
(0.00995 5e-05 5e-06)
(5e-05 0.00015 5e-06)
(0.00015 0.00015 5e-06)
(0.00025 0.00015 5e-06)
(0.00035 0.00015 5e-06)
(0.00045 0.00015 5e-06)
(0.00055 0.00015 5e-06)
(0.00065 0.00015 5e-06)
(0.00075 0.00015 5e-06)
(0.00085 0.00015 5e-06)
(0.00095 0.00015 5e-06)
(0.00105 0.00015 5e-06)
(0.00115 0.00015 5e-06)
(0.00125 0.00015 5e-06)
(0.00135 0.00015 5e-06)
(0.00145 0.00015 5e-06)
(0.00155 0.00015 5e-06)
(0.00165 0.00015 5e-06)
(0.00175 0.00015 5e-06)
(0.00185 0.00015 5e-06)
(0.00195 0.00015 5e-06)
(0.00205 0.00015 5e-06)
(0.00215 0.00015 5e-06)
(0.00225 0.00015 5e-06)
(0.00235 0.00015 5e-06)
(0.00245 0.00015 5e-06)
(0.00255 0.00015 5e-06)
(0.00265 0.00015 5e-06)
(0.00275 0.00015 5e-06)
(0.00285 0.00015 5e-06)
(0.00295 0.00015 5e-06)
(0.00305 0.00015 5e-06)
(0.00315 0.00015 5e-06)
(0.00325 0.00015 5e-06)
(0.00335 0.00015 5e-06)
(0.00345 0.00015 5e-06)
(0.00355 0.00015 5e-06)
(0.00365 0.00015 5e-06)
(0.00375 0.00015 5e-06)
(0.00385 0.00015 5e-06)
(0.00395 0.00015 5e-06)
(0.00405 0.00015 5e-06)
(0.00415 0.00015 5e-06)
(0.00425 0.00015 5e-06)
(0.00435 0.00015 5e-06)
(0.00445 0.00015 5e-06)
(0.00455 0.00015 5e-06)
(0.00465 0.00015 5e-06)
(0.00475 0.00015 5e-06)
(0.00485 0.00015 5e-06)
(0.00495 0.00015 5e-06)
(0.00505 0.00015 5e-06)
(0.00515 0.00015 5e-06)
(0.00525 0.00015 5e-06)
(0.00535 0.00015 5e-06)
(0.00545 0.00015 5e-06)
(0.00555 0.00015 5e-06)
(0.00565 0.00015 5e-06)
(0.00575 0.00015 5e-06)
(0.00585 0.00015 5e-06)
(0.00595 0.00015 5e-06)
(0.00605 0.00015 5e-06)
(0.00615 0.00015 5e-06)
(0.00625 0.00015 5e-06)
(0.00635 0.00015 5e-06)
(0.00645 0.00015 5e-06)
(0.00655 0.00015 5e-06)
(0.00665 0.00015 5e-06)
(0.00675 0.00015 5e-06)
(0.00685 0.00015 5e-06)
(0.00695 0.00015 5e-06)
(0.00705 0.00015 5e-06)
(0.00715 0.00015 5e-06)
(0.00725 0.00015 5e-06)
(0.00735 0.00015 5e-06)
(0.00745 0.00015 5e-06)
(0.00755 0.00015 5e-06)
(0.00765 0.00015 5e-06)
(0.00775 0.00015 5e-06)
(0.00785 0.00015 5e-06)
(0.00795 0.00015 5e-06)
(0.00805 0.00015 5e-06)
(0.00815 0.00015 5e-06)
(0.00825 0.00015 5e-06)
(0.00835 0.00015 5e-06)
(0.00845 0.00015 5e-06)
(0.00855 0.00015 5e-06)
(0.00865 0.00015 5e-06)
(0.00875 0.00015 5e-06)
(0.00885 0.00015 5e-06)
(0.00895 0.00015 5e-06)
(0.00905 0.00015 5e-06)
(0.00915 0.00015 5e-06)
(0.00925 0.00015 5e-06)
(0.00935 0.00015 5e-06)
(0.00945 0.00015 5e-06)
(0.00955 0.00015 5e-06)
(0.00965 0.00015 5e-06)
(0.00975 0.00015 5e-06)
(0.00985 0.00015 5e-06)
(0.00995 0.00015 5e-06)
(5e-05 0.00025 5e-06)
(0.00015 0.00025 5e-06)
(0.00025 0.00025 5e-06)
(0.00035 0.00025 5e-06)
(0.00045 0.00025 5e-06)
(0.00055 0.00025 5e-06)
(0.00065 0.00025 5e-06)
(0.00075 0.00025 5e-06)
(0.00085 0.00025 5e-06)
(0.00095 0.00025 5e-06)
(0.00105 0.00025 5e-06)
(0.00115 0.00025 5e-06)
(0.00125 0.00025 5e-06)
(0.00135 0.00025 5e-06)
(0.00145 0.00025 5e-06)
(0.00155 0.00025 5e-06)
(0.00165 0.00025 5e-06)
(0.00175 0.00025 5e-06)
(0.00185 0.00025 5e-06)
(0.00195 0.00025 5e-06)
(0.00205 0.00025 5e-06)
(0.00215 0.00025 5e-06)
(0.00225 0.00025 5e-06)
(0.00235 0.00025 5e-06)
(0.00245 0.00025 5e-06)
(0.00255 0.00025 5e-06)
(0.00265 0.00025 5e-06)
(0.00275 0.00025 5e-06)
(0.00285 0.00025 5e-06)
(0.00295 0.00025 5e-06)
(0.00305 0.00025 5e-06)
(0.00315 0.00025 5e-06)
(0.00325 0.00025 5e-06)
(0.00335 0.00025 5e-06)
(0.00345 0.00025 5e-06)
(0.00355 0.00025 5e-06)
(0.00365 0.00025 5e-06)
(0.00375 0.00025 5e-06)
(0.00385 0.00025 5e-06)
(0.00395 0.00025 5e-06)
(0.00405 0.00025 5e-06)
(0.00415 0.00025 5e-06)
(0.00425 0.00025 5e-06)
(0.00435 0.00025 5e-06)
(0.00445 0.00025 5e-06)
(0.00455 0.00025 5e-06)
(0.00465 0.00025 5e-06)
(0.00475 0.00025 5e-06)
(0.00485 0.00025 5e-06)
(0.00495 0.00025 5e-06)
(0.00505 0.00025 5e-06)
(0.00515 0.00025 5e-06)
(0.00525 0.00025 5e-06)
(0.00535 0.00025 5e-06)
(0.00545 0.00025 5e-06)
(0.00555 0.00025 5e-06)
(0.00565 0.00025 5e-06)
(0.00575 0.00025 5e-06)
(0.00585 0.00025 5e-06)
(0.00595 0.00025 5e-06)
(0.00605 0.00025 5e-06)
(0.00615 0.00025 5e-06)
(0.00625 0.00025 5e-06)
(0.00635 0.00025 5e-06)
(0.00645 0.00025 5e-06)
(0.00655 0.00025 5e-06)
(0.00665 0.00025 5e-06)
(0.00675 0.00025 5e-06)
(0.00685 0.00025 5e-06)
(0.00695 0.00025 5e-06)
(0.00705 0.00025 5e-06)
(0.00715 0.00025 5e-06)
(0.00725 0.00025 5e-06)
(0.00735 0.00025 5e-06)
(0.00745 0.00025 5e-06)
(0.00755 0.00025 5e-06)
(0.00765 0.00025 5e-06)
(0.00775 0.00025 5e-06)
(0.00785 0.00025 5e-06)
(0.00795 0.00025 5e-06)
(0.00805 0.00025 5e-06)
(0.00815 0.00025 5e-06)
(0.00825 0.00025 5e-06)
(0.00835 0.00025 5e-06)
(0.00845 0.00025 5e-06)
(0.00855 0.00025 5e-06)
(0.00865 0.00025 5e-06)
(0.00875 0.00025 5e-06)
(0.00885 0.00025 5e-06)
(0.00895 0.00025 5e-06)
(0.00905 0.00025 5e-06)
(0.00915 0.00025 5e-06)
(0.00925 0.00025 5e-06)
(0.00935 0.00025 5e-06)
(0.00945 0.00025 5e-06)
(0.00955 0.00025 5e-06)
(0.00965 0.00025 5e-06)
(0.00975 0.00025 5e-06)
(0.00985 0.00025 5e-06)
(0.00995 0.00025 5e-06)
(5e-05 0.00035 5e-06)
(0.00015 0.00035 5e-06)
(0.00025 0.00035 5e-06)
(0.00035 0.00035 5e-06)
(0.00045 0.00035 5e-06)
(0.00055 0.00035 5e-06)
(0.00065 0.00035 5e-06)
(0.00075 0.00035 5e-06)
(0.00085 0.00035 5e-06)
(0.00095 0.00035 5e-06)
(0.00105 0.00035 5e-06)
(0.00115 0.00035 5e-06)
(0.00125 0.00035 5e-06)
(0.00135 0.00035 5e-06)
(0.00145 0.00035 5e-06)
(0.00155 0.00035 5e-06)
(0.00165 0.00035 5e-06)
(0.00175 0.00035 5e-06)
(0.00185 0.00035 5e-06)
(0.00195 0.00035 5e-06)
(0.00205 0.00035 5e-06)
(0.00215 0.00035 5e-06)
(0.00225 0.00035 5e-06)
(0.00235 0.00035 5e-06)
(0.00245 0.00035 5e-06)
(0.00255 0.00035 5e-06)
(0.00265 0.00035 5e-06)
(0.00275 0.00035 5e-06)
(0.00285 0.00035 5e-06)
(0.00295 0.00035 5e-06)
(0.00305 0.00035 5e-06)
(0.00315 0.00035 5e-06)
(0.00325 0.00035 5e-06)
(0.00335 0.00035 5e-06)
(0.00345 0.00035 5e-06)
(0.00355 0.00035 5e-06)
(0.00365 0.00035 5e-06)
(0.00375 0.00035 5e-06)
(0.00385 0.00035 5e-06)
(0.00395 0.00035 5e-06)
(0.00405 0.00035 5e-06)
(0.00415 0.00035 5e-06)
(0.00425 0.00035 5e-06)
(0.00435 0.00035 5e-06)
(0.00445 0.00035 5e-06)
(0.00455 0.00035 5e-06)
(0.00465 0.00035 5e-06)
(0.00475 0.00035 5e-06)
(0.00485 0.00035 5e-06)
(0.00495 0.00035 5e-06)
(0.00505 0.00035 5e-06)
(0.00515 0.00035 5e-06)
(0.00525 0.00035 5e-06)
(0.00535 0.00035 5e-06)
(0.00545 0.00035 5e-06)
(0.00555 0.00035 5e-06)
(0.00565 0.00035 5e-06)
(0.00575 0.00035 5e-06)
(0.00585 0.00035 5e-06)
(0.00595 0.00035 5e-06)
(0.00605 0.00035 5e-06)
(0.00615 0.00035 5e-06)
(0.00625 0.00035 5e-06)
(0.00635 0.00035 5e-06)
(0.00645 0.00035 5e-06)
(0.00655 0.00035 5e-06)
(0.00665 0.00035 5e-06)
(0.00675 0.00035 5e-06)
(0.00685 0.00035 5e-06)
(0.00695 0.00035 5e-06)
(0.00705 0.00035 5e-06)
(0.00715 0.00035 5e-06)
(0.00725 0.00035 5e-06)
(0.00735 0.00035 5e-06)
(0.00745 0.00035 5e-06)
(0.00755 0.00035 5e-06)
(0.00765 0.00035 5e-06)
(0.00775 0.00035 5e-06)
(0.00785 0.00035 5e-06)
(0.00795 0.00035 5e-06)
(0.00805 0.00035 5e-06)
(0.00815 0.00035 5e-06)
(0.00825 0.00035 5e-06)
(0.00835 0.00035 5e-06)
(0.00845 0.00035 5e-06)
(0.00855 0.00035 5e-06)
(0.00865 0.00035 5e-06)
(0.00875 0.00035 5e-06)
(0.00885 0.00035 5e-06)
(0.00895 0.00035 5e-06)
(0.00905 0.00035 5e-06)
(0.00915 0.00035 5e-06)
(0.00925 0.00035 5e-06)
(0.00935 0.00035 5e-06)
(0.00945 0.00035 5e-06)
(0.00955 0.00035 5e-06)
(0.00965 0.00035 5e-06)
(0.00975 0.00035 5e-06)
(0.00985 0.00035 5e-06)
(0.00995 0.00035 5e-06)
(5e-05 0.00045 5e-06)
(0.00015 0.00045 5e-06)
(0.00025 0.00045 5e-06)
(0.00035 0.00045 5e-06)
(0.00045 0.00045 5e-06)
(0.00055 0.00045 5e-06)
(0.00065 0.00045 5e-06)
(0.00075 0.00045 5e-06)
(0.00085 0.00045 5e-06)
(0.00095 0.00045 5e-06)
(0.00105 0.00045 5e-06)
(0.00115 0.00045 5e-06)
(0.00125 0.00045 5e-06)
(0.00135 0.00045 5e-06)
(0.00145 0.00045 5e-06)
(0.00155 0.00045 5e-06)
(0.00165 0.00045 5e-06)
(0.00175 0.00045 5e-06)
(0.00185 0.00045 5e-06)
(0.00195 0.00045 5e-06)
(0.00205 0.00045 5e-06)
(0.00215 0.00045 5e-06)
(0.00225 0.00045 5e-06)
(0.00235 0.00045 5e-06)
(0.00245 0.00045 5e-06)
(0.00255 0.00045 5e-06)
(0.00265 0.00045 5e-06)
(0.00275 0.00045 5e-06)
(0.00285 0.00045 5e-06)
(0.00295 0.00045 5e-06)
(0.00305 0.00045 5e-06)
(0.00315 0.00045 5e-06)
(0.00325 0.00045 5e-06)
(0.00335 0.00045 5e-06)
(0.00345 0.00045 5e-06)
(0.00355 0.00045 5e-06)
(0.00365 0.00045 5e-06)
(0.00375 0.00045 5e-06)
(0.00385 0.00045 5e-06)
(0.00395 0.00045 5e-06)
(0.00405 0.00045 5e-06)
(0.00415 0.00045 5e-06)
(0.00425 0.00045 5e-06)
(0.00435 0.00045 5e-06)
(0.00445 0.00045 5e-06)
(0.00455 0.00045 5e-06)
(0.00465 0.00045 5e-06)
(0.00475 0.00045 5e-06)
(0.00485 0.00045 5e-06)
(0.00495 0.00045 5e-06)
(0.00505 0.00045 5e-06)
(0.00515 0.00045 5e-06)
(0.00525 0.00045 5e-06)
(0.00535 0.00045 5e-06)
(0.00545 0.00045 5e-06)
(0.00555 0.00045 5e-06)
(0.00565 0.00045 5e-06)
(0.00575 0.00045 5e-06)
(0.00585 0.00045 5e-06)
(0.00595 0.00045 5e-06)
(0.00605 0.00045 5e-06)
(0.00615 0.00045 5e-06)
(0.00625 0.00045 5e-06)
(0.00635 0.00045 5e-06)
(0.00645 0.00045 5e-06)
(0.00655 0.00045 5e-06)
(0.00665 0.00045 5e-06)
(0.00675 0.00045 5e-06)
(0.00685 0.00045 5e-06)
(0.00695 0.00045 5e-06)
(0.00705 0.00045 5e-06)
(0.00715 0.00045 5e-06)
(0.00725 0.00045 5e-06)
(0.00735 0.00045 5e-06)
(0.00745 0.00045 5e-06)
(0.00755 0.00045 5e-06)
(0.00765 0.00045 5e-06)
(0.00775 0.00045 5e-06)
(0.00785 0.00045 5e-06)
(0.00795 0.00045 5e-06)
(0.00805 0.00045 5e-06)
(0.00815 0.00045 5e-06)
(0.00825 0.00045 5e-06)
(0.00835 0.00045 5e-06)
(0.00845 0.00045 5e-06)
(0.00855 0.00045 5e-06)
(0.00865 0.00045 5e-06)
(0.00875 0.00045 5e-06)
(0.00885 0.00045 5e-06)
(0.00895 0.00045 5e-06)
(0.00905 0.00045 5e-06)
(0.00915 0.00045 5e-06)
(0.00925 0.00045 5e-06)
(0.00935 0.00045 5e-06)
(0.00945 0.00045 5e-06)
(0.00955 0.00045 5e-06)
(0.00965 0.00045 5e-06)
(0.00975 0.00045 5e-06)
(0.00985 0.00045 5e-06)
(0.00995 0.00045 5e-06)
(5e-05 0.00055 5e-06)
(0.00015 0.00055 5e-06)
(0.00025 0.00055 5e-06)
(0.00035 0.00055 5e-06)
(0.00045 0.00055 5e-06)
(0.00055 0.00055 5e-06)
(0.00065 0.00055 5e-06)
(0.00075 0.00055 5e-06)
(0.00085 0.00055 5e-06)
(0.00095 0.00055 5e-06)
(0.00105 0.00055 5e-06)
(0.00115 0.00055 5e-06)
(0.00125 0.00055 5e-06)
(0.00135 0.00055 5e-06)
(0.00145 0.00055 5e-06)
(0.00155 0.00055 5e-06)
(0.00165 0.00055 5e-06)
(0.00175 0.00055 5e-06)
(0.00185 0.00055 5e-06)
(0.00195 0.00055 5e-06)
(0.00205 0.00055 5e-06)
(0.00215 0.00055 5e-06)
(0.00225 0.00055 5e-06)
(0.00235 0.00055 5e-06)
(0.00245 0.00055 5e-06)
(0.00255 0.00055 5e-06)
(0.00265 0.00055 5e-06)
(0.00275 0.00055 5e-06)
(0.00285 0.00055 5e-06)
(0.00295 0.00055 5e-06)
(0.00305 0.00055 5e-06)
(0.00315 0.00055 5e-06)
(0.00325 0.00055 5e-06)
(0.00335 0.00055 5e-06)
(0.00345 0.00055 5e-06)
(0.00355 0.00055 5e-06)
(0.00365 0.00055 5e-06)
(0.00375 0.00055 5e-06)
(0.00385 0.00055 5e-06)
(0.00395 0.00055 5e-06)
(0.00405 0.00055 5e-06)
(0.00415 0.00055 5e-06)
(0.00425 0.00055 5e-06)
(0.00435 0.00055 5e-06)
(0.00445 0.00055 5e-06)
(0.00455 0.00055 5e-06)
(0.00465 0.00055 5e-06)
(0.00475 0.00055 5e-06)
(0.00485 0.00055 5e-06)
(0.00495 0.00055 5e-06)
(0.00505 0.00055 5e-06)
(0.00515 0.00055 5e-06)
(0.00525 0.00055 5e-06)
(0.00535 0.00055 5e-06)
(0.00545 0.00055 5e-06)
(0.00555 0.00055 5e-06)
(0.00565 0.00055 5e-06)
(0.00575 0.00055 5e-06)
(0.00585 0.00055 5e-06)
(0.00595 0.00055 5e-06)
(0.00605 0.00055 5e-06)
(0.00615 0.00055 5e-06)
(0.00625 0.00055 5e-06)
(0.00635 0.00055 5e-06)
(0.00645 0.00055 5e-06)
(0.00655 0.00055 5e-06)
(0.00665 0.00055 5e-06)
(0.00675 0.00055 5e-06)
(0.00685 0.00055 5e-06)
(0.00695 0.00055 5e-06)
(0.00705 0.00055 5e-06)
(0.00715 0.00055 5e-06)
(0.00725 0.00055 5e-06)
(0.00735 0.00055 5e-06)
(0.00745 0.00055 5e-06)
(0.00755 0.00055 5e-06)
(0.00765 0.00055 5e-06)
(0.00775 0.00055 5e-06)
(0.00785 0.00055 5e-06)
(0.00795 0.00055 5e-06)
(0.00805 0.00055 5e-06)
(0.00815 0.00055 5e-06)
(0.00825 0.00055 5e-06)
(0.00835 0.00055 5e-06)
(0.00845 0.00055 5e-06)
(0.00855 0.00055 5e-06)
(0.00865 0.00055 5e-06)
(0.00875 0.00055 5e-06)
(0.00885 0.00055 5e-06)
(0.00895 0.00055 5e-06)
(0.00905 0.00055 5e-06)
(0.00915 0.00055 5e-06)
(0.00925 0.00055 5e-06)
(0.00935 0.00055 5e-06)
(0.00945 0.00055 5e-06)
(0.00955 0.00055 5e-06)
(0.00965 0.00055 5e-06)
(0.00975 0.00055 5e-06)
(0.00985 0.00055 5e-06)
(0.00995 0.00055 5e-06)
(5e-05 0.00065 5e-06)
(0.00015 0.00065 5e-06)
(0.00025 0.00065 5e-06)
(0.00035 0.00065 5e-06)
(0.00045 0.00065 5e-06)
(0.00055 0.00065 5e-06)
(0.00065 0.00065 5e-06)
(0.00075 0.00065 5e-06)
(0.00085 0.00065 5e-06)
(0.00095 0.00065 5e-06)
(0.00105 0.00065 5e-06)
(0.00115 0.00065 5e-06)
(0.00125 0.00065 5e-06)
(0.00135 0.00065 5e-06)
(0.00145 0.00065 5e-06)
(0.00155 0.00065 5e-06)
(0.00165 0.00065 5e-06)
(0.00175 0.00065 5e-06)
(0.00185 0.00065 5e-06)
(0.00195 0.00065 5e-06)
(0.00205 0.00065 5e-06)
(0.00215 0.00065 5e-06)
(0.00225 0.00065 5e-06)
(0.00235 0.00065 5e-06)
(0.00245 0.00065 5e-06)
(0.00255 0.00065 5e-06)
(0.00265 0.00065 5e-06)
(0.00275 0.00065 5e-06)
(0.00285 0.00065 5e-06)
(0.00295 0.00065 5e-06)
(0.00305 0.00065 5e-06)
(0.00315 0.00065 5e-06)
(0.00325 0.00065 5e-06)
(0.00335 0.00065 5e-06)
(0.00345 0.00065 5e-06)
(0.00355 0.00065 5e-06)
(0.00365 0.00065 5e-06)
(0.00375 0.00065 5e-06)
(0.00385 0.00065 5e-06)
(0.00395 0.00065 5e-06)
(0.00405 0.00065 5e-06)
(0.00415 0.00065 5e-06)
(0.00425 0.00065 5e-06)
(0.00435 0.00065 5e-06)
(0.00445 0.00065 5e-06)
(0.00455 0.00065 5e-06)
(0.00465 0.00065 5e-06)
(0.00475 0.00065 5e-06)
(0.00485 0.00065 5e-06)
(0.00495 0.00065 5e-06)
(0.00505 0.00065 5e-06)
(0.00515 0.00065 5e-06)
(0.00525 0.00065 5e-06)
(0.00535 0.00065 5e-06)
(0.00545 0.00065 5e-06)
(0.00555 0.00065 5e-06)
(0.00565 0.00065 5e-06)
(0.00575 0.00065 5e-06)
(0.00585 0.00065 5e-06)
(0.00595 0.00065 5e-06)
(0.00605 0.00065 5e-06)
(0.00615 0.00065 5e-06)
(0.00625 0.00065 5e-06)
(0.00635 0.00065 5e-06)
(0.00645 0.00065 5e-06)
(0.00655 0.00065 5e-06)
(0.00665 0.00065 5e-06)
(0.00675 0.00065 5e-06)
(0.00685 0.00065 5e-06)
(0.00695 0.00065 5e-06)
(0.00705 0.00065 5e-06)
(0.00715 0.00065 5e-06)
(0.00725 0.00065 5e-06)
(0.00735 0.00065 5e-06)
(0.00745 0.00065 5e-06)
(0.00755 0.00065 5e-06)
(0.00765 0.00065 5e-06)
(0.00775 0.00065 5e-06)
(0.00785 0.00065 5e-06)
(0.00795 0.00065 5e-06)
(0.00805 0.00065 5e-06)
(0.00815 0.00065 5e-06)
(0.00825 0.00065 5e-06)
(0.00835 0.00065 5e-06)
(0.00845 0.00065 5e-06)
(0.00855 0.00065 5e-06)
(0.00865 0.00065 5e-06)
(0.00875 0.00065 5e-06)
(0.00885 0.00065 5e-06)
(0.00895 0.00065 5e-06)
(0.00905 0.00065 5e-06)
(0.00915 0.00065 5e-06)
(0.00925 0.00065 5e-06)
(0.00935 0.00065 5e-06)
(0.00945 0.00065 5e-06)
(0.00955 0.00065 5e-06)
(0.00965 0.00065 5e-06)
(0.00975 0.00065 5e-06)
(0.00985 0.00065 5e-06)
(0.00995 0.00065 5e-06)
(5e-05 0.00075 5e-06)
(0.00015 0.00075 5e-06)
(0.00025 0.00075 5e-06)
(0.00035 0.00075 5e-06)
(0.00045 0.00075 5e-06)
(0.00055 0.00075 5e-06)
(0.00065 0.00075 5e-06)
(0.00075 0.00075 5e-06)
(0.00085 0.00075 5e-06)
(0.00095 0.00075 5e-06)
(0.00105 0.00075 5e-06)
(0.00115 0.00075 5e-06)
(0.00125 0.00075 5e-06)
(0.00135 0.00075 5e-06)
(0.00145 0.00075 5e-06)
(0.00155 0.00075 5e-06)
(0.00165 0.00075 5e-06)
(0.00175 0.00075 5e-06)
(0.00185 0.00075 5e-06)
(0.00195 0.00075 5e-06)
(0.00205 0.00075 5e-06)
(0.00215 0.00075 5e-06)
(0.00225 0.00075 5e-06)
(0.00235 0.00075 5e-06)
(0.00245 0.00075 5e-06)
(0.00255 0.00075 5e-06)
(0.00265 0.00075 5e-06)
(0.00275 0.00075 5e-06)
(0.00285 0.00075 5e-06)
(0.00295 0.00075 5e-06)
(0.00305 0.00075 5e-06)
(0.00315 0.00075 5e-06)
(0.00325 0.00075 5e-06)
(0.00335 0.00075 5e-06)
(0.00345 0.00075 5e-06)
(0.00355 0.00075 5e-06)
(0.00365 0.00075 5e-06)
(0.00375 0.00075 5e-06)
(0.00385 0.00075 5e-06)
(0.00395 0.00075 5e-06)
(0.00405 0.00075 5e-06)
(0.00415 0.00075 5e-06)
(0.00425 0.00075 5e-06)
(0.00435 0.00075 5e-06)
(0.00445 0.00075 5e-06)
(0.00455 0.00075 5e-06)
(0.00465 0.00075 5e-06)
(0.00475 0.00075 5e-06)
(0.00485 0.00075 5e-06)
(0.00495 0.00075 5e-06)
(0.00505 0.00075 5e-06)
(0.00515 0.00075 5e-06)
(0.00525 0.00075 5e-06)
(0.00535 0.00075 5e-06)
(0.00545 0.00075 5e-06)
(0.00555 0.00075 5e-06)
(0.00565 0.00075 5e-06)
(0.00575 0.00075 5e-06)
(0.00585 0.00075 5e-06)
(0.00595 0.00075 5e-06)
(0.00605 0.00075 5e-06)
(0.00615 0.00075 5e-06)
(0.00625 0.00075 5e-06)
(0.00635 0.00075 5e-06)
(0.00645 0.00075 5e-06)
(0.00655 0.00075 5e-06)
(0.00665 0.00075 5e-06)
(0.00675 0.00075 5e-06)
(0.00685 0.00075 5e-06)
(0.00695 0.00075 5e-06)
(0.00705 0.00075 5e-06)
(0.00715 0.00075 5e-06)
(0.00725 0.00075 5e-06)
(0.00735 0.00075 5e-06)
(0.00745 0.00075 5e-06)
(0.00755 0.00075 5e-06)
(0.00765 0.00075 5e-06)
(0.00775 0.00075 5e-06)
(0.00785 0.00075 5e-06)
(0.00795 0.00075 5e-06)
(0.00805 0.00075 5e-06)
(0.00815 0.00075 5e-06)
(0.00825 0.00075 5e-06)
(0.00835 0.00075 5e-06)
(0.00845 0.00075 5e-06)
(0.00855 0.00075 5e-06)
(0.00865 0.00075 5e-06)
(0.00875 0.00075 5e-06)
(0.00885 0.00075 5e-06)
(0.00895 0.00075 5e-06)
(0.00905 0.00075 5e-06)
(0.00915 0.00075 5e-06)
(0.00925 0.00075 5e-06)
(0.00935 0.00075 5e-06)
(0.00945 0.00075 5e-06)
(0.00955 0.00075 5e-06)
(0.00965 0.00075 5e-06)
(0.00975 0.00075 5e-06)
(0.00985 0.00075 5e-06)
(0.00995 0.00075 5e-06)
(5e-05 0.00085 5e-06)
(0.00015 0.00085 5e-06)
(0.00025 0.00085 5e-06)
(0.00035 0.00085 5e-06)
(0.00045 0.00085 5e-06)
(0.00055 0.00085 5e-06)
(0.00065 0.00085 5e-06)
(0.00075 0.00085 5e-06)
(0.00085 0.00085 5e-06)
(0.00095 0.00085 5e-06)
(0.00105 0.00085 5e-06)
(0.00115 0.00085 5e-06)
(0.00125 0.00085 5e-06)
(0.00135 0.00085 5e-06)
(0.00145 0.00085 5e-06)
(0.00155 0.00085 5e-06)
(0.00165 0.00085 5e-06)
(0.00175 0.00085 5e-06)
(0.00185 0.00085 5e-06)
(0.00195 0.00085 5e-06)
(0.00205 0.00085 5e-06)
(0.00215 0.00085 5e-06)
(0.00225 0.00085 5e-06)
(0.00235 0.00085 5e-06)
(0.00245 0.00085 5e-06)
(0.00255 0.00085 5e-06)
(0.00265 0.00085 5e-06)
(0.00275 0.00085 5e-06)
(0.00285 0.00085 5e-06)
(0.00295 0.00085 5e-06)
(0.00305 0.00085 5e-06)
(0.00315 0.00085 5e-06)
(0.00325 0.00085 5e-06)
(0.00335 0.00085 5e-06)
(0.00345 0.00085 5e-06)
(0.00355 0.00085 5e-06)
(0.00365 0.00085 5e-06)
(0.00375 0.00085 5e-06)
(0.00385 0.00085 5e-06)
(0.00395 0.00085 5e-06)
(0.00405 0.00085 5e-06)
(0.00415 0.00085 5e-06)
(0.00425 0.00085 5e-06)
(0.00435 0.00085 5e-06)
(0.00445 0.00085 5e-06)
(0.00455 0.00085 5e-06)
(0.00465 0.00085 5e-06)
(0.00475 0.00085 5e-06)
(0.00485 0.00085 5e-06)
(0.00495 0.00085 5e-06)
(0.00505 0.00085 5e-06)
(0.00515 0.00085 5e-06)
(0.00525 0.00085 5e-06)
(0.00535 0.00085 5e-06)
(0.00545 0.00085 5e-06)
(0.00555 0.00085 5e-06)
(0.00565 0.00085 5e-06)
(0.00575 0.00085 5e-06)
(0.00585 0.00085 5e-06)
(0.00595 0.00085 5e-06)
(0.00605 0.00085 5e-06)
(0.00615 0.00085 5e-06)
(0.00625 0.00085 5e-06)
(0.00635 0.00085 5e-06)
(0.00645 0.00085 5e-06)
(0.00655 0.00085 5e-06)
(0.00665 0.00085 5e-06)
(0.00675 0.00085 5e-06)
(0.00685 0.00085 5e-06)
(0.00695 0.00085 5e-06)
(0.00705 0.00085 5e-06)
(0.00715 0.00085 5e-06)
(0.00725 0.00085 5e-06)
(0.00735 0.00085 5e-06)
(0.00745 0.00085 5e-06)
(0.00755 0.00085 5e-06)
(0.00765 0.00085 5e-06)
(0.00775 0.00085 5e-06)
(0.00785 0.00085 5e-06)
(0.00795 0.00085 5e-06)
(0.00805 0.00085 5e-06)
(0.00815 0.00085 5e-06)
(0.00825 0.00085 5e-06)
(0.00835 0.00085 5e-06)
(0.00845 0.00085 5e-06)
(0.00855 0.00085 5e-06)
(0.00865 0.00085 5e-06)
(0.00875 0.00085 5e-06)
(0.00885 0.00085 5e-06)
(0.00895 0.00085 5e-06)
(0.00905 0.00085 5e-06)
(0.00915 0.00085 5e-06)
(0.00925 0.00085 5e-06)
(0.00935 0.00085 5e-06)
(0.00945 0.00085 5e-06)
(0.00955 0.00085 5e-06)
(0.00965 0.00085 5e-06)
(0.00975 0.00085 5e-06)
(0.00985 0.00085 5e-06)
(0.00995 0.00085 5e-06)
(5e-05 0.00095 5e-06)
(0.00015 0.00095 5e-06)
(0.00025 0.00095 5e-06)
(0.00035 0.00095 5e-06)
(0.00045 0.00095 5e-06)
(0.00055 0.00095 5e-06)
(0.00065 0.00095 5e-06)
(0.00075 0.00095 5e-06)
(0.00085 0.00095 5e-06)
(0.00095 0.00095 5e-06)
(0.00105 0.00095 5e-06)
(0.00115 0.00095 5e-06)
(0.00125 0.00095 5e-06)
(0.00135 0.00095 5e-06)
(0.00145 0.00095 5e-06)
(0.00155 0.00095 5e-06)
(0.00165 0.00095 5e-06)
(0.00175 0.00095 5e-06)
(0.00185 0.00095 5e-06)
(0.00195 0.00095 5e-06)
(0.00205 0.00095 5e-06)
(0.00215 0.00095 5e-06)
(0.00225 0.00095 5e-06)
(0.00235 0.00095 5e-06)
(0.00245 0.00095 5e-06)
(0.00255 0.00095 5e-06)
(0.00265 0.00095 5e-06)
(0.00275 0.00095 5e-06)
(0.00285 0.00095 5e-06)
(0.00295 0.00095 5e-06)
(0.00305 0.00095 5e-06)
(0.00315 0.00095 5e-06)
(0.00325 0.00095 5e-06)
(0.00335 0.00095 5e-06)
(0.00345 0.00095 5e-06)
(0.00355 0.00095 5e-06)
(0.00365 0.00095 5e-06)
(0.00375 0.00095 5e-06)
(0.00385 0.00095 5e-06)
(0.00395 0.00095 5e-06)
(0.00405 0.00095 5e-06)
(0.00415 0.00095 5e-06)
(0.00425 0.00095 5e-06)
(0.00435 0.00095 5e-06)
(0.00445 0.00095 5e-06)
(0.00455 0.00095 5e-06)
(0.00465 0.00095 5e-06)
(0.00475 0.00095 5e-06)
(0.00485 0.00095 5e-06)
(0.00495 0.00095 5e-06)
(0.00505 0.00095 5e-06)
(0.00515 0.00095 5e-06)
(0.00525 0.00095 5e-06)
(0.00535 0.00095 5e-06)
(0.00545 0.00095 5e-06)
(0.00555 0.00095 5e-06)
(0.00565 0.00095 5e-06)
(0.00575 0.00095 5e-06)
(0.00585 0.00095 5e-06)
(0.00595 0.00095 5e-06)
(0.00605 0.00095 5e-06)
(0.00615 0.00095 5e-06)
(0.00625 0.00095 5e-06)
(0.00635 0.00095 5e-06)
(0.00645 0.00095 5e-06)
(0.00655 0.00095 5e-06)
(0.00665 0.00095 5e-06)
(0.00675 0.00095 5e-06)
(0.00685 0.00095 5e-06)
(0.00695 0.00095 5e-06)
(0.00705 0.00095 5e-06)
(0.00715 0.00095 5e-06)
(0.00725 0.00095 5e-06)
(0.00735 0.00095 5e-06)
(0.00745 0.00095 5e-06)
(0.00755 0.00095 5e-06)
(0.00765 0.00095 5e-06)
(0.00775 0.00095 5e-06)
(0.00785 0.00095 5e-06)
(0.00795 0.00095 5e-06)
(0.00805 0.00095 5e-06)
(0.00815 0.00095 5e-06)
(0.00825 0.00095 5e-06)
(0.00835 0.00095 5e-06)
(0.00845 0.00095 5e-06)
(0.00855 0.00095 5e-06)
(0.00865 0.00095 5e-06)
(0.00875 0.00095 5e-06)
(0.00885 0.00095 5e-06)
(0.00895 0.00095 5e-06)
(0.00905 0.00095 5e-06)
(0.00915 0.00095 5e-06)
(0.00925 0.00095 5e-06)
(0.00935 0.00095 5e-06)
(0.00945 0.00095 5e-06)
(0.00955 0.00095 5e-06)
(0.00965 0.00095 5e-06)
(0.00975 0.00095 5e-06)
(0.00985 0.00095 5e-06)
(0.00995 0.00095 5e-06)
)
;

boundaryField
{
    inlet
    {
        type            calculated;
        value           nonuniform List<vector> 10((0 5e-05 5e-06) (0 0.00015 5e-06) (0 0.00025 5e-06) (0 0.00035 5e-06) (0 0.00045 5e-06) (0 0.00055 5e-06) (0 0.00065 5e-06) (0 0.00075 5e-06) (0 0.00085 5e-06) (0 0.00095 5e-06));
    }
    outlet
    {
        type            calculated;
        value           nonuniform List<vector> 10((0.01 5e-05 5e-06) (0.01 0.00015 5e-06) (0.01 0.00025 5e-06) (0.01 0.00035 5e-06) (0.01 0.00045 5e-06) (0.01 0.00055 5e-06) (0.01 0.00065 5e-06) (0.01 0.00075 5e-06) (0.01 0.00085 5e-06) (0.01 0.00095 5e-06));
    }
    walls
    {
        type            calculated;
        value           nonuniform List<vector> 
200
(
(5e-05 0 5e-06)
(0.00015 0 5e-06)
(0.00025 0 5e-06)
(0.00035 0 5e-06)
(0.00045 0 5e-06)
(0.00055 0 5e-06)
(0.00065 0 5e-06)
(0.00075 0 5e-06)
(0.00085 0 5e-06)
(0.00095 0 5e-06)
(0.00105 0 5e-06)
(0.00115 0 5e-06)
(0.00125 0 5e-06)
(0.00135 0 5e-06)
(0.00145 0 5e-06)
(0.00155 0 5e-06)
(0.00165 0 5e-06)
(0.00175 0 5e-06)
(0.00185 0 5e-06)
(0.00195 0 5e-06)
(0.00205 0 5e-06)
(0.00215 0 5e-06)
(0.00225 0 5e-06)
(0.00235 0 5e-06)
(0.00245 0 5e-06)
(0.00255 0 5e-06)
(0.00265 0 5e-06)
(0.00275 0 5e-06)
(0.00285 0 5e-06)
(0.00295 0 5e-06)
(0.00305 0 5e-06)
(0.00315 0 5e-06)
(0.00325 0 5e-06)
(0.00335 0 5e-06)
(0.00345 0 5e-06)
(0.00355 0 5e-06)
(0.00365 0 5e-06)
(0.00375 0 5e-06)
(0.00385 0 5e-06)
(0.00395 0 5e-06)
(0.00405 0 5e-06)
(0.00415 0 5e-06)
(0.00425 0 5e-06)
(0.00435 0 5e-06)
(0.00445 0 5e-06)
(0.00455 0 5e-06)
(0.00465 0 5e-06)
(0.00475 0 5e-06)
(0.00485 0 5e-06)
(0.00495 0 5e-06)
(0.00505 0 5e-06)
(0.00515 0 5e-06)
(0.00525 0 5e-06)
(0.00535 0 5e-06)
(0.00545 0 5e-06)
(0.00555 0 5e-06)
(0.00565 0 5e-06)
(0.00575 0 5e-06)
(0.00585 0 5e-06)
(0.00595 0 5e-06)
(0.00605 0 5e-06)
(0.00615 0 5e-06)
(0.00625 0 5e-06)
(0.00635 0 5e-06)
(0.00645 0 5e-06)
(0.00655 0 5e-06)
(0.00665 0 5e-06)
(0.00675 0 5e-06)
(0.00685 0 5e-06)
(0.00695 0 5e-06)
(0.00705 0 5e-06)
(0.00715 0 5e-06)
(0.00725 0 5e-06)
(0.00735 0 5e-06)
(0.00745 0 5e-06)
(0.00755 0 5e-06)
(0.00765 0 5e-06)
(0.00775 0 5e-06)
(0.00785 0 5e-06)
(0.00795 0 5e-06)
(0.00805 0 5e-06)
(0.00815 0 5e-06)
(0.00825 0 5e-06)
(0.00835 0 5e-06)
(0.00845 0 5e-06)
(0.00855 0 5e-06)
(0.00865 0 5e-06)
(0.00875 0 5e-06)
(0.00885 0 5e-06)
(0.00895 0 5e-06)
(0.00905 0 5e-06)
(0.00915 0 5e-06)
(0.00925 0 5e-06)
(0.00935 0 5e-06)
(0.00945 0 5e-06)
(0.00955 0 5e-06)
(0.00965 0 5e-06)
(0.00975 0 5e-06)
(0.00985 0 5e-06)
(0.00995 0 5e-06)
(5e-05 0.001 5e-06)
(0.00015 0.001 5e-06)
(0.00025 0.001 5e-06)
(0.00035 0.001 5e-06)
(0.00045 0.001 5e-06)
(0.00055 0.001 5e-06)
(0.00065 0.001 5e-06)
(0.00075 0.001 5e-06)
(0.00085 0.001 5e-06)
(0.00095 0.001 5e-06)
(0.00105 0.001 5e-06)
(0.00115 0.001 5e-06)
(0.00125 0.001 5e-06)
(0.00135 0.001 5e-06)
(0.00145 0.001 5e-06)
(0.00155 0.001 5e-06)
(0.00165 0.001 5e-06)
(0.00175 0.001 5e-06)
(0.00185 0.001 5e-06)
(0.00195 0.001 5e-06)
(0.00205 0.001 5e-06)
(0.00215 0.001 5e-06)
(0.00225 0.001 5e-06)
(0.00235 0.001 5e-06)
(0.00245 0.001 5e-06)
(0.00255 0.001 5e-06)
(0.00265 0.001 5e-06)
(0.00275 0.001 5e-06)
(0.00285 0.001 5e-06)
(0.00295 0.001 5e-06)
(0.00305 0.001 5e-06)
(0.00315 0.001 5e-06)
(0.00325 0.001 5e-06)
(0.00335 0.001 5e-06)
(0.00345 0.001 5e-06)
(0.00355 0.001 5e-06)
(0.00365 0.001 5e-06)
(0.00375 0.001 5e-06)
(0.00385 0.001 5e-06)
(0.00395 0.001 5e-06)
(0.00405 0.001 5e-06)
(0.00415 0.001 5e-06)
(0.00425 0.001 5e-06)
(0.00435 0.001 5e-06)
(0.00445 0.001 5e-06)
(0.00455 0.001 5e-06)
(0.00465 0.001 5e-06)
(0.00475 0.001 5e-06)
(0.00485 0.001 5e-06)
(0.00495 0.001 5e-06)
(0.00505 0.001 5e-06)
(0.00515 0.001 5e-06)
(0.00525 0.001 5e-06)
(0.00535 0.001 5e-06)
(0.00545 0.001 5e-06)
(0.00555 0.001 5e-06)
(0.00565 0.001 5e-06)
(0.00575 0.001 5e-06)
(0.00585 0.001 5e-06)
(0.00595 0.001 5e-06)
(0.00605 0.001 5e-06)
(0.00615 0.001 5e-06)
(0.00625 0.001 5e-06)
(0.00635 0.001 5e-06)
(0.00645 0.001 5e-06)
(0.00655 0.001 5e-06)
(0.00665 0.001 5e-06)
(0.00675 0.001 5e-06)
(0.00685 0.001 5e-06)
(0.00695 0.001 5e-06)
(0.00705 0.001 5e-06)
(0.00715 0.001 5e-06)
(0.00725 0.001 5e-06)
(0.00735 0.001 5e-06)
(0.00745 0.001 5e-06)
(0.00755 0.001 5e-06)
(0.00765 0.001 5e-06)
(0.00775 0.001 5e-06)
(0.00785 0.001 5e-06)
(0.00795 0.001 5e-06)
(0.00805 0.001 5e-06)
(0.00815 0.001 5e-06)
(0.00825 0.001 5e-06)
(0.00835 0.001 5e-06)
(0.00845 0.001 5e-06)
(0.00855 0.001 5e-06)
(0.00865 0.001 5e-06)
(0.00875 0.001 5e-06)
(0.00885 0.001 5e-06)
(0.00895 0.001 5e-06)
(0.00905 0.001 5e-06)
(0.00915 0.001 5e-06)
(0.00925 0.001 5e-06)
(0.00935 0.001 5e-06)
(0.00945 0.001 5e-06)
(0.00955 0.001 5e-06)
(0.00965 0.001 5e-06)
(0.00975 0.001 5e-06)
(0.00985 0.001 5e-06)
(0.00995 0.001 5e-06)
)
;
    }
    frontAndBack
    {
        type            empty;
    }
}


// ************************************************************************* //
