/*--------------------------------*- C++ -*----------------------------------*\
| =========                 |                                                 |
| \\      /  F ield         | OpenFOAM: The Open Source CFD Toolbox           |
|  \\    /   O peration     | Version:  2406                                  |
|   \\  /    A nd           | Website:  www.openfoam.com                      |
|    \\/     M anipulation  |                                                 |
\*---------------------------------------------------------------------------*/
FoamFile
{
    version     2.0;
    format      ascii;
    arch        "LSB;label=32;scalar=64";
    class       volScalarField;
    location    "946";
    object      p;
}
// * * * * * * * * * * * * * * * * * * * * * * * * * * * * * * * * * * * * * //

dimensions      [0 2 -2 0 0 0 0];

internalField   nonuniform List<scalar> 
9800
(
-4.422128e-05
-4.6869933e-05
-4.6827543e-05
-4.2539607e-05
-3.4460994e-05
-2.3386982e-05
-1.0175521e-05
4.3617525e-06
1.9521969e-05
3.4729246e-05
4.9530845e-05
6.358778e-05
7.6660887e-05
8.8595427e-05
9.9305847e-05
0.00010876166
0.00011697463
0.00012398802
0.00012986715
0.00013469222
0.00013855269
0.00014154219
0.000143755
0.00014528335
0.0001462155
0.00014663438
0.00014661676
0.00014623279
0.00014554579
0.00014461234
0.00014348248
0.00014220004
0.00014080305
0.00013932421
0.00013779133
0.00013622787
0.00013465333
0.00013308378
0.00013153221
0.00013000897
0.00012852211
0.00012707771
0.0001256802
0.00012433255
0.00012303658
0.00012179309
0.0001206021
0.00011946296
0.00011837449
0.0001173351
0.00011634288
0.00011539567
0.00011449117
0.00011362693
0.00011280046
0.00011200923
0.00011125073
0.00011052247
0.00010982199
0.00010914694
0.00010849502
0.00010786401
0.00010725181
0.00010665641
0.00010607587
0.0001055084
0.00010495227
0.00010440587
0.0001038677
0.00010333632
0.00010281041
0.00010228873
0.00010177013
0.00010125354
0.00010073797
0.00010022249
9.970627e-05
9.9188523e-05
9.8668534e-05
9.814565e-05
9.7619273e-05
9.7088858e-05
9.6553913e-05
9.6013991e-05
9.546869e-05
9.4917653e-05
9.4360558e-05
9.3797123e-05
9.3227099e-05
9.2650269e-05
9.2066448e-05
9.1475477e-05
9.0877224e-05
9.0271582e-05
8.9658467e-05
8.9037814e-05
8.840958e-05
8.7773739e-05
8.7130283e-05
8.6479218e-05
8.5820564e-05
8.5154357e-05
8.4480644e-05
8.3799481e-05
8.3110937e-05
8.2415089e-05
8.1712023e-05
8.1001833e-05
8.0284618e-05
7.9560486e-05
7.882955e-05
7.8091926e-05
7.7347736e-05
7.6597106e-05
7.5840165e-05
7.5077044e-05
7.4307879e-05
7.3532804e-05
7.2751959e-05
7.1965482e-05
7.1173513e-05
7.0376193e-05
6.9573663e-05
6.8766063e-05
6.7953534e-05
6.7136216e-05
6.6314248e-05
6.5487768e-05
6.4656915e-05
6.3821823e-05
6.2982628e-05
6.2139461e-05
6.1292455e-05
6.0441737e-05
5.9587437e-05
5.8729677e-05
5.7868582e-05
5.7004272e-05
5.6136866e-05
5.5266478e-05
5.4393224e-05
5.3517213e-05
5.2638554e-05
5.1757353e-05
5.0873713e-05
4.9987735e-05
4.9099517e-05
4.8209154e-05
4.7316738e-05
4.6422361e-05
4.5526108e-05
4.4628065e-05
4.3728315e-05
4.2826935e-05
4.1924005e-05
4.1019597e-05
4.0113784e-05
3.9206635e-05
3.8298218e-05
3.7388595e-05
3.6477831e-05
3.5565983e-05
3.465311e-05
3.3739267e-05
3.2824506e-05
3.1908878e-05
3.0992432e-05
3.0075213e-05
2.9157267e-05
2.8238635e-05
2.7319358e-05
2.6399474e-05
2.5479019e-05
2.4558029e-05
2.3636534e-05
2.2714568e-05
2.1792159e-05
2.0869334e-05
1.9946119e-05
1.9022539e-05
1.8098617e-05
1.7174373e-05
1.6249827e-05
1.5324998e-05
1.4399903e-05
1.3474556e-05
1.2548972e-05
1.1623163e-05
1.0697138e-05
9.7709069e-06
8.8444725e-06
7.9178337e-06
6.9909788e-06
6.0638794e-06
5.1364757e-06
4.2086357e-06
3.2800683e-06
2.3504884e-06
1.4200805e-06
4.8231068e-07
-4.142502e-05
-4.4201266e-05
-4.4079698e-05
-3.9905297e-05
-3.234101e-05
-2.205917e-05
-9.7476535e-06
3.9092127e-06
1.8285213e-05
3.2840378e-05
4.713151e-05
6.08138e-05
7.3634344e-05
8.5421525e-05
9.6072624e-05
0.00010554092
0.00011382321
0.00012094964
0.00012697492
0.00013197061
0.0001360185
0.00013920588
0.00014162181
0.00014335425
0.00014448807
0.00014510348
0.00014527516
0.00014507169
0.00014455527
0.00014378172
0.00014280063
0.00014165564
0.0001403848
0.00013902099
0.00013759236
0.00013612277
0.00013463222
0.00013313731
0.00013165162
0.00013018609
0.00012874936
0.00012734812
0.00012598734
0.00012467057
0.00012340015
0.0001221774
0.0001210028
0.00011987614
0.00011879667
0.00011776315
0.00011677406
0.00011582754
0.00011492159
0.00011405405
0.00011322265
0.00011242511
0.0001116591
0.00011092232
0.00011021248
0.00010952737
0.00010886482
0.00010822274
0.00010759913
0.00010699205
0.00010639969
0.00010582028
0.0001052522
0.00010469387
0.00010414384
0.00010360071
0.00010306322
0.00010253013
0.00010200034
0.00010147279
0.0001009465
0.00010042058
9.9894193e-05
9.9366567e-05
9.8836997e-05
9.8304832e-05
9.7769477e-05
9.7230391e-05
9.6687081e-05
9.6139098e-05
9.5586042e-05
9.5027548e-05
9.4463293e-05
9.389299e-05
9.3316385e-05
9.2733256e-05
9.2143411e-05
9.1546686e-05
9.0942941e-05
9.0332063e-05
8.971396e-05
8.9088561e-05
8.8455816e-05
8.7815691e-05
8.716817e-05
8.6513253e-05
8.5850954e-05
8.5181299e-05
8.4504329e-05
8.3820093e-05
8.3128654e-05
8.2430082e-05
8.1724455e-05
8.1011861e-05
8.0292394e-05
7.9566155e-05
7.8833249e-05
7.8093788e-05
7.7347889e-05
7.6595671e-05
7.5837258e-05
7.5072776e-05
7.4302354e-05
7.3526125e-05
7.274422e-05
7.1956774e-05
7.1163923e-05
7.0365803e-05
6.956255e-05
6.8754302e-05
6.7941194e-05
6.7123364e-05
6.6300946e-05
6.5474076e-05
6.4642887e-05
6.3807512e-05
6.2968083e-05
6.2124729e-05
6.1277578e-05
6.0426757e-05
5.957239e-05
5.87146e-05
5.7853508e-05
5.6989231e-05
5.6121886e-05
5.5251586e-05
5.4378443e-05
5.3502566e-05
5.2624061e-05
5.1743033e-05
5.0859583e-05
4.997381e-05
4.908581e-05
4.8195678e-05
4.7303504e-05
4.6409378e-05
4.5513385e-05
4.461561e-05
4.3716132e-05
4.2815031e-05
4.1912383e-05
4.100826e-05
4.0102735e-05
3.9195875e-05
3.8287747e-05
3.7378415e-05
3.6467939e-05
3.5556379e-05
3.4643791e-05
3.3730231e-05
3.281575e-05
3.1900399e-05
3.0984225e-05
3.0067275e-05
2.9149592e-05
2.8231219e-05
2.7312195e-05
2.6392558e-05
2.5472344e-05
2.4551588e-05
2.3630322e-05
2.2708577e-05
2.1786381e-05
2.0863763e-05
1.9940747e-05
1.9017358e-05
1.8093618e-05
1.7169549e-05
1.6245168e-05
1.5320494e-05
1.4395543e-05
1.3470329e-05
1.2544864e-05
1.161916e-05
1.0693223e-05
9.7670572e-06
8.8406632e-06
7.9140329e-06
6.9871479e-06
6.0599728e-06
5.132445e-06
4.2044414e-06
3.2757227e-06
2.3462266e-06
1.4167492e-06
4.8121939e-07
-4.1414425e-05
-4.453385e-05
-4.4365395e-05
-4.0016233e-05
-3.2503805e-05
-2.2486795e-05
-1.0555978e-05
2.6883801e-06
1.6675814e-05
3.0896376e-05
4.4919974e-05
5.8403936e-05
7.1091621e-05
8.2804646e-05
9.3432417e-05
0.00010292034
0.00011125794
0.00011846932
0.00012460322
0.00012972567
0.00013391373
0.00013725061
0.00013982185
0.00014171243
0.00014300464
0.00014377658
0.00014410118
0.00014404558
0.00014367086
0.00014303199
0.00014217793
0.0001411519
0.00013999172
0.00013873016
0.00013739542
0.00013601148
0.00013459859
0.00013317363
0.00013175051
0.00013034056
0.00012895282
0.00012759439
0.00012627068
0.00012498565
0.00012374204
0.00012254159
0.00012138517
0.00012027294
0.00011920449
0.00011817894
0.00011719505
0.00011625128
0.00011534589
0.00011447696
0.00011364248
0.00011284036
0.00011206847
0.00011132469
0.0001106069
0.00010991302
0.00010924103
0.00010858895
0.00010795488
0.00010733701
0.00010673358
0.00010614292
0.00010556347
0.00010499372
0.00010443225
0.00010387775
0.00010332895
0.0001027847
0.00010224388
0.00010170549
0.00010116857
0.00010063224
0.00010009568
9.9558137e-05
9.9018911e-05
9.8477362e-05
9.7932903e-05
9.7384995e-05
9.6833148e-05
9.6276916e-05
9.5715898e-05
9.5149729e-05
9.4578083e-05
9.4000672e-05
9.3417237e-05
9.2827552e-05
9.2231421e-05
9.1628673e-05
9.1019166e-05
9.0402779e-05
8.9779414e-05
8.9148994e-05
8.8511462e-05
8.7866778e-05
8.721492e-05
8.6555879e-05
8.5889665e-05
8.5216296e-05
8.4535805e-05
8.3848238e-05
8.3153647e-05
8.2452098e-05
8.1743663e-05
8.1028423e-05
8.0306465e-05
7.9577884e-05
7.8842781e-05
7.8101261e-05
7.7353434e-05
7.6599415e-05
7.5839322e-05
7.5073276e-05
7.4301401e-05
7.3523824e-05
7.2740672e-05
7.1952077e-05
7.1158167e-05
7.0359076e-05
6.9554935e-05
6.8745878e-05
6.7932036e-05
6.7113543e-05
6.6290529e-05
6.5463128e-05
6.4631468e-05
6.3795679e-05
6.2955889e-05
6.2112225e-05
6.1264813e-05
6.0413775e-05
5.9559233e-05
5.8701308e-05
5.7840117e-05
5.6975776e-05
5.61084e-05
5.5238098e-05
5.4364982e-05
5.3489157e-05
5.2610728e-05
5.1729798e-05
5.0846466e-05
4.996083e-05
4.9072983e-05
4.818302e-05
4.7291029e-05
4.6397098e-05
4.5501312e-05
4.4603752e-05
4.37045e-05
4.2803631e-05
4.1901222e-05
4.0997344e-05
4.0092067e-05
3.918546e-05
3.8277587e-05
3.7368512e-05
3.6458294e-05
3.5546993e-05
3.4634665e-05
3.3721362e-05
3.2807138e-05
3.1892041e-05
3.097612e-05
3.0059419e-05
2.9141982e-05
2.8223851e-05
2.7305065e-05
2.6385661e-05
2.5465676e-05
2.4545143e-05
2.3624095e-05
2.2702561e-05
2.1780572e-05
2.0858153e-05
1.993533e-05
1.9012126e-05
1.8088565e-05
1.7164665e-05
1.6240446e-05
1.5315925e-05
1.4391117e-05
1.3466036e-05
1.2540692e-05
1.1615095e-05
1.0689251e-05
9.763161e-06
8.8368227e-06
7.910226e-06
6.9833507e-06
6.0561629e-06
5.1286103e-06
4.200598e-06
3.271939e-06
2.342708e-06
1.4143348e-06
4.814961e-07
-4.6689538e-05
-4.9770784e-05
-4.9113557e-05
-4.398085e-05
-3.5765025e-05
-2.5210439e-05
-1.2895767e-05
6.1056244e-07
1.4769521e-05
2.9098139e-05
4.3187456e-05
5.6710459e-05
6.9422274e-05
8.1153583e-05
9.1799893e-05
0.00010131107
0.00010967948
0.00011693041
0.00012311303
0.00012829312
0.00013254706
0.00013595711
0.00013860765
0.00014058242
0.00014196246
0.00014282463
0.00014324067
0.00014327664
0.00014299262
0.00014244269
0.00014167507
0.00014073232
0.00013965173
0.00013846566
0.000137202
0.00013588452
0.00013453332
0.00013316525
0.00013179424
0.00013043168
0.00012908672
0.00012776661
0.00012647694
0.00012522188
0.0001240044
0.00012282646
0.00012168916
0.0001205929
0.00011953752
0.00011852235
0.00011754639
0.00011660832
0.00011570659
0.00011483949
0.00011400519
0.00011320176
0.00011242726
0.00011167971
0.00011095713
0.00011025757
0.00010957913
0.00010891995
0.00010827823
0.00010765223
0.00010704029
0.00010644082
0.00010585232
0.00010527335
0.00010470254
0.00010413863
0.0001035804
0.00010302672
0.00010247654
0.00010192886
0.00010138275
0.00010083737
0.00010029191
9.9745624e-05
9.9197844e-05
9.8647935e-05
9.809532e-05
9.7539469e-05
9.6979898e-05
9.6416167e-05
9.5847876e-05
9.5274664e-05
9.4696208e-05
9.4112217e-05
9.3522433e-05
9.2926629e-05
9.2324606e-05
9.1716191e-05
9.1101238e-05
9.0479623e-05
8.9851245e-05
8.9216022e-05
8.8573891e-05
8.792481e-05
8.726875e-05
8.6605698e-05
8.5935658e-05
8.5258643e-05
8.4574682e-05
8.3883814e-05
8.3186087e-05
8.2481561e-05
8.1770302e-05
8.1052387e-05
8.0327897e-05
7.9596923e-05
7.885956e-05
7.8115908e-05
7.7366072e-05
7.6610163e-05
7.5848294e-05
7.5080582e-05
7.4307146e-05
7.3528108e-05
7.2743592e-05
7.1953723e-05
7.115863e-05
7.0358439e-05
6.9553278e-05
6.8743278e-05
6.7928567e-05
6.7109274e-05
6.6285528e-05
6.5457456e-05
6.4625185e-05
6.3788843e-05
6.2948554e-05
6.2104442e-05
6.125663e-05
6.0405237e-05
5.9550385e-05
5.869219e-05
5.7830767e-05
5.6966231e-05
5.6098693e-05
5.5228262e-05
5.4355045e-05
5.3479148e-05
5.2600674e-05
5.1719722e-05
5.0836391e-05
4.9950776e-05
4.9062971e-05
4.8173067e-05
4.7281152e-05
4.6387311e-05
4.5491629e-05
4.4594186e-05
4.3695062e-05
4.2794332e-05
4.189207e-05
4.0988348e-05
4.0083235e-05
3.9176797e-05
3.8269099e-05
3.7360203e-05
3.6450169e-05
3.5539055e-05
3.4626915e-05
3.3713803e-05
3.2799771e-05
3.1884867e-05
3.0969138e-05
3.0052629e-05
2.9135383e-05
2.8217442e-05
2.7298844e-05
2.6379626e-05
2.5459824e-05
2.4539472e-05
2.36186e-05
2.269724e-05
2.177542e-05
2.0853166e-05
1.9930504e-05
1.9007457e-05
1.8084045e-05
1.7160291e-05
1.6236211e-05
1.5311823e-05
1.4387141e-05
1.3462178e-05
1.2536945e-05
1.161145e-05
1.0685699e-05
9.7596938e-06
8.8334314e-06
7.9069043e-06
6.9800974e-06
6.0529876e-06
5.1255434e-06
4.1977086e-06
3.2693541e-06
2.3406555e-06
1.4134034e-06
4.8241687e-07
-5.857986e-05
-6.057281e-05
-5.8322797e-05
-5.1383293e-05
-4.1533736e-05
-2.9632695e-05
-1.6264952e-05
-1.9677571e-06
1.2764317e-05
2.7492567e-05
4.1848571e-05
5.554013e-05
6.835074e-05
8.0133936e-05
9.0802736e-05
0.00010031972
0.00010868663
0.0001159351
0.00012211851
0.00012730526
0.00013157315
0.00013500504
0.0001376853
0.00013969724
0.00014112119
0.00014203312
0.00014250379
0.00014259823
0.00014237549
0.00014188867
0.00014118506
0.00014030637
0.00013928915
0.0001381651
0.00013696154
0.00013570178
0.00013440556
0.00013308945
0.00013176715
0.00013044992
0.00012914683
0.00012786512
0.00012661039
0.00012538687
0.00012419763
0.00012304475
0.00012192945
0.00012085231
0.0001198133
0.00011881196
0.00011784741
0.00011691854
0.00011602395
0.0001151621
0.00011433132
0.00011352984
0.00011275587
0.00011200755
0.00011128305
0.00011058055
0.00010989826
0.00010923442
0.00010858734
0.00010795538
0.00010733696
0.00010673057
0.00010613478
0.00010554822
0.00010496958
0.00010439765
0.00010383127
0.00010326935
0.00010271088
0.00010215489
0.0001016005
0.00010104687
0.00010049324
9.9938878e-05
9.9383134e-05
9.8825391e-05
9.8265087e-05
9.7701703e-05
9.7134766e-05
9.6563845e-05
9.5988547e-05
9.5408517e-05
9.4823435e-05
9.4233013e-05
9.3636996e-05
9.3035158e-05
9.2427301e-05
9.1813251e-05
9.1192861e-05
9.0566006e-05
8.9932581e-05
8.9292503e-05
8.8645707e-05
8.7992146e-05
8.7331788e-05
8.6664618e-05
8.5990633e-05
8.5309845e-05
8.4622276e-05
8.3927962e-05
8.3226948e-05
8.2519286e-05
8.1805041e-05
8.1084284e-05
8.0357092e-05
7.9623551e-05
7.8883751e-05
7.8137789e-05
7.7385766e-05
7.6627787e-05
7.5863961e-05
7.5094401e-05
7.4319222e-05
7.3538543e-05
7.2752483e-05
7.1961164e-05
7.116471e-05
7.0363244e-05
6.9556891e-05
6.8745777e-05
6.7930028e-05
6.7109769e-05
6.6285125e-05
6.5456222e-05
6.4623183e-05
6.3786133e-05
6.2945192e-05
6.2100483e-05
6.1252125e-05
6.0400236e-05
5.9544934e-05
5.8686332e-05
5.7824546e-05
5.6959685e-05
5.6091859e-05
5.5221176e-05
5.434774e-05
5.3471656e-05
5.2593023e-05
5.171194e-05
5.0828505e-05
4.9942809e-05
4.9054947e-05
4.8165006e-05
4.7273073e-05
4.6379234e-05
4.548357e-05
4.4586162e-05
4.3687085e-05
4.2786417e-05
4.1884229e-05
4.0980592e-05
4.0075573e-05
3.916924e-05
3.8261654e-05
3.7352877e-05
3.6442969e-05
3.5531986e-05
3.4619983e-05
3.3707012e-05
3.2793124e-05
3.1878367e-05
3.0962788e-05
3.0046431e-05
2.9129338e-05
2.821155e-05
2.7293106e-05
2.6374041e-05
2.5454392e-05
2.4534192e-05
2.3613471e-05
2.269226e-05
2.1770587e-05
2.0848478e-05
1.9925957e-05
1.9003048e-05
1.8079772e-05
1.7156149e-05
1.6232197e-05
1.5307933e-05
1.438337e-05
1.3458522e-05
1.25334e-05
1.1608011e-05
1.0682362e-05
9.7564567e-06
8.8302944e-06
7.9038722e-06
6.9771831e-06
6.0502169e-06
5.122964e-06
4.1954016e-06
3.2674456e-06
2.339333e-06
1.4130566e-06
4.8343807e-07
-7.8884977e-05
-7.7820659e-05
-7.2055086e-05
-6.1754974e-05
-4.9077824e-05
-3.49587e-05
-1.99345e-05
-4.4473853e-06
1.1109172e-05
2.6382239e-05
4.1076506e-05
5.4958613e-05
6.7858052e-05
7.9662847e-05
9.0311732e-05
9.9785692e-05
0.00010809938
0.00011529324
0.00012142646
0.00012657109
0.00013080706
0.0001342182
0.0001368891
0.00013890276
0.00014033877
0.00014127216
0.00014177259
0.00014190388
0.00014172389
0.00014128452
0.00014063191
0.00013980673
0.00013884453
0.00013777616
0.00013662815
0.00013542314
0.00013418034
0.00013291583
0.00013164293
0.00013037259
0.00012911369
0.00012787328
0.00012665688
0.00012546869
0.00012431176
0.0001231882
0.00012209933
0.00012104579
0.00012002767
0.00011904462
0.00011809591
0.00011718055
0.00011629731
0.00011544477
0.00011462141
0.00011382563
0.00011305573
0.00011231003
0.00011158681
0.00011088437
0.00011020105
0.0001095352
0.00010888523
0.0001082496
0.00010762683
0.00010701548
0.00010641422
0.00010582173
0.00010523679
0.00010465824
0.00010408498
0.00010351597
0.00010295025
0.00010238689
0.00010182505
0.00010126393
0.00010070279
0.00010014095
9.957775e-05
9.9012618e-05
9.8445005e-05
9.787441e-05
9.7300376e-05
9.6722483e-05
9.614035e-05
9.555363e-05
9.4962013e-05
9.4365216e-05
9.3762991e-05
9.3155113e-05
9.2541389e-05
9.1921648e-05
9.1295742e-05
9.0663547e-05
9.0024959e-05
8.9379895e-05
8.8728287e-05
8.8070086e-05
8.7405261e-05
8.6733791e-05
8.6055672e-05
8.5370914e-05
8.4679535e-05
8.3981568e-05
8.3277053e-05
8.2566041e-05
8.1848591e-05
8.1124771e-05
8.0394654e-05
7.9658323e-05
7.8915864e-05
7.8167369e-05
7.7412936e-05
7.6652665e-05
7.5886663e-05
7.5115038e-05
7.4337901e-05
7.3555368e-05
7.2767553e-05
7.1974576e-05
7.1176557e-05
7.0373615e-05
6.9565872e-05
6.875345e-05
6.7936473e-05
6.7115061e-05
6.6289338e-05
6.5459425e-05
6.4625444e-05
6.3787514e-05
6.2945756e-05
6.2100288e-05
6.1251226e-05
6.0398688e-05
5.9542786e-05
5.8683634e-05
5.7821342e-05
5.6956019e-05
5.6087774e-05
5.521671e-05
5.4342931e-05
5.3466539e-05
5.2587632e-05
5.1706307e-05
5.0822658e-05
4.9936778e-05
4.9048757e-05
4.8158682e-05
4.7266639e-05
4.6372711e-05
4.547698e-05
4.4579522e-05
4.3680415e-05
4.2779732e-05
4.1877545e-05
4.0973922e-05
4.0068932e-05
3.9162639e-05
3.8255104e-05
3.734639e-05
3.6436552e-05
3.5525649e-05
3.4613732e-05
3.3700855e-05
3.2787067e-05
3.1872415e-05
3.0956946e-05
3.0040703e-05
2.9123727e-05
2.820606e-05
2.7287738e-05
2.6368799e-05
2.5449276e-05
2.4529202e-05
2.3608609e-05
2.2687526e-05
2.1765981e-05
2.0843998e-05
1.9921604e-05
1.899882e-05
1.8075668e-05
1.7152167e-05
1.6228336e-05
1.530419e-05
1.4379744e-05
1.3455011e-05
1.2530002e-05
1.1604727e-05
1.0679192e-05
9.7534042e-06
8.8273663e-06
7.9010808e-06
6.9745491e-06
6.0477737e-06
5.1207627e-06
4.1935181e-06
3.2659845e-06
2.3384284e-06
1.4129624e-06
4.8443317e-07
-0.0001104123
-0.00010251106
-9.0035619e-05
-7.4163715e-05
-5.7228571e-05
-4.0053789e-05
-2.2938022e-05
-6.0629097e-06
1.0372001e-05
2.6161952e-05
4.1123e-05
5.5104503e-05
6.7995752e-05
7.9727002e-05
9.0266462e-05
9.9615254e-05
0.00010780152
0.00011487445
0.00012089874
0.00012594959
0.00013010851
0.00013345976
0.00013608764
0.00013807429
0.00013949813
0.00014043277
0.00014094634
0.0001411011
0.00014095334
0.00014055344
0.0001399461
0.00013917066
0.00013826145
0.00013724821
0.00013615648
0.0001350081
0.00013382152
0.0001326122
0.00013139294
0.00013017426
0.0001289647
0.00012777107
0.00012659871
0.00012545169
0.000124333
0.00012324473
0.0001221882
0.0001211641
0.0001201726
0.00011921342
0.00011828597
0.00011738935
0.00011652247
0.00011568404
0.00011487268
0.00011408692
0.00011332521
0.00011258599
0.00011186769
0.00011116873
0.00011048756
0.00010982266
0.00010917255
0.0001085358
0.00010791102
0.00010729689
0.00010669214
0.00010609555
0.00010550596
0.0001049223
0.00010434352
0.00010376865
0.00010319677
0.00010262703
0.00010205862
0.00010149078
0.00010092281
0.00010035405
9.9783911e-05
9.9211817e-05
9.8637253e-05
9.8059741e-05
9.7478843e-05
9.6894158e-05
9.630532e-05
9.5711996e-05
9.5113886e-05
9.451072e-05
9.3902256e-05
9.3288278e-05
9.2668599e-05
9.2043052e-05
9.1411493e-05
9.0773803e-05
9.0129878e-05
8.9479637e-05
8.8823012e-05
8.8159957e-05
8.7490436e-05
8.6814431e-05
8.6131936e-05
8.5442958e-05
8.4747514e-05
8.4045634e-05
8.3337356e-05
8.2622729e-05
8.1901808e-05
8.1174659e-05
8.0441351e-05
7.9701964e-05
7.8956581e-05
7.820529e-05
7.7448185e-05
7.6685364e-05
7.591693e-05
7.5142988e-05
7.4363644e-05
7.3579012e-05
7.2789202e-05
7.199433e-05
7.1194513e-05
7.0389867e-05
6.9580511e-05
6.8766564e-05
6.7948145e-05
6.7125372e-05
6.6298367e-05
6.5467246e-05
6.4632129e-05
6.3793132e-05
6.2950374e-05
6.2103969e-05
6.1254031e-05
6.0400675e-05
5.9544012e-05
5.8684151e-05
5.7821201e-05
5.695527e-05
5.6086462e-05
5.521488e-05
5.4340625e-05
5.3463797e-05
5.2584491e-05
5.1702804e-05
5.0818827e-05
4.9932652e-05
4.9044366e-05
4.8154056e-05
4.7261805e-05
4.6367695e-05
4.5471805e-05
4.4574212e-05
4.3674992e-05
4.2774216e-05
4.1871954e-05
4.0968275e-05
4.0063245e-05
3.9156927e-05
3.8249382e-05
3.7340671e-05
3.6430849e-05
3.5519972e-05
3.4608092e-05
3.3695262e-05
3.2781529e-05
3.1866941e-05
3.0951542e-05
3.0035376e-05
2.9118484e-05
2.8200905e-05
2.7282676e-05
2.6363834e-05
2.5444412e-05
2.4524442e-05
2.3603955e-05
2.2682981e-05
2.1761545e-05
2.0839675e-05
1.9917393e-05
1.8994723e-05
1.8071685e-05
1.7148299e-05
1.6224583e-05
1.5300552e-05
1.4376223e-05
1.3451607e-05
1.2526718e-05
1.1601565e-05
1.0676158e-05
9.750505e-06
8.8246134e-06
7.8984913e-06
6.9721476e-06
6.045595e-06
5.1188547e-06
4.191945e-06
3.2648267e-06
2.3377748e-06
1.4129718e-06
4.853467e-07
-0.0001566029
-0.00013504641
-0.00011088092
-8.6725633e-05
-6.4199094e-05
-4.3453008e-05
-2.4151409e-05
-6.0037792e-06
1.1107839e-05
2.7189429e-05
4.2199195e-05
5.6082323e-05
6.8791753e-05
8.0299694e-05
9.0601785e-05
9.9716756e-05
0.00010768374
0.00011455845
0.00012040912
0.00012531243
0.00012934998
0.00013260526
0.00013516112
0.00013709787
0.0001384919
0.00013941465
0.00013993206
0.00014010422
0.00013998534
0.00013962387
0.00013906267
0.00013833943
0.00013748696
0.00013653367
0.00013550393
0.00013441857
0.00013329518
0.00013214838
0.00013099035
0.00012983112
0.00012867881
0.00012753991
0.00012641951
0.00012532151
0.00012424879
0.00012320337
0.00012218656
0.00012119906
0.00012024108
0.00011931244
0.00011841262
0.00011754084
0.00011669611
0.00011587731
0.00011508317
0.00011431235
0.00011356346
0.00011283507
0.00011212574
0.00011143404
0.00011075855
0.00011009787
0.00010945065
0.00010881556
0.00010819135
0.00010757677
0.00010697067
0.00010637193
0.00010577947
0.00010519228
0.00010460942
0.00010402998
0.0001034531
0.00010287798
0.00010230388
0.0001017301
0.00010115596
0.00010058088
0.00010000427
9.9425612e-05
9.8844418e-05
9.826024e-05
9.7672665e-05
9.7081315e-05
9.6485845e-05
9.5885941e-05
9.5281319e-05
9.4671724e-05
9.4056926e-05
9.3436721e-05
9.2810929e-05
9.2179393e-05
9.1541977e-05
9.0898565e-05
9.0249059e-05
8.9593381e-05
8.8931469e-05
8.8263274e-05
8.7588765e-05
8.6907924e-05
8.6220745e-05
8.5527234e-05
8.4827409e-05
8.4121297e-05
8.3408936e-05
8.2690372e-05
8.196566e-05
8.1234861e-05
8.0498044e-05
7.9755285e-05
7.9006664e-05
7.8252267e-05
7.7492185e-05
7.6726513e-05
7.595535e-05
7.5178798e-05
7.4396961e-05
7.3609947e-05
7.2817867e-05
7.202083e-05
7.1218951e-05
7.0412343e-05
6.9601122e-05
6.8785403e-05
6.7965302e-05
6.7140936e-05
6.6312421e-05
6.5479871e-05
6.4643404e-05
6.3803133e-05
6.2959172e-05
6.2111635e-05
6.1260632e-05
6.0406275e-05
5.9548672e-05
5.8687932e-05
5.782416e-05
5.695746e-05
5.6087936e-05
5.5215687e-05
5.4340813e-05
5.3463411e-05
5.2583575e-05
5.1701399e-05
5.0816973e-05
4.9930385e-05
4.9041722e-05
4.8151069e-05
4.7258508e-05
4.6364117e-05
4.5467976e-05
4.4570159e-05
4.367074e-05
4.2769789e-05
4.1867376e-05
4.0963567e-05
4.0058427e-05
3.9152018e-05
3.8244401e-05
3.7335633e-05
3.642577e-05
3.5514867e-05
3.4602975e-05
3.3690145e-05
3.2776424e-05
3.1861858e-05
3.0946492e-05
3.0030367e-05
2.9113525e-05
2.8196004e-05
2.727784e-05
2.6359068e-05
2.5439723e-05
2.4519836e-05
2.3599436e-05
2.2678552e-05
2.1757212e-05
2.083544e-05
1.991326e-05
1.8990694e-05
1.8067763e-05
1.7144487e-05
1.6220883e-05
1.5296968e-05
1.4372756e-05
1.3448263e-05
1.25235e-05
1.159848e-05
1.0673213e-05
9.7477112e-06
8.8219851e-06
7.8960475e-06
6.9699136e-06
6.0436036e-06
5.1171472e-06
4.1905723e-06
3.2638475e-06
2.3372442e-06
1.4129804e-06
4.8613034e-07
-0.00023093509
-0.00017770347
-0.00013157055
-9.6482511e-05
-6.7799759e-05
-4.3572192e-05
-2.2526674e-05
-3.623442e-06
1.3693128e-05
2.9664189e-05
4.4389727e-05
5.7902566e-05
7.0208696e-05
8.1312532e-05
9.1229218e-05
9.9988941e-05
0.0001076371
0.00011423232
0.00011984345
0.00012454636
0.00012842084
0.00013154789
0.00013400751
0.00013587696
0.00013722946
0.00013813335
0.00013865152
0.00013884121
0.00013875393
0.00013843565
0.00013792699
0.00013726359
0.00013647648
0.00013559245
0.00013463456
0.00013362247
0.00013257262
0.00013149878
0.00013041243
0.000129323
0.00012823816
0.00012716401
0.00012610537
0.00012506593
0.00012404843
0.0001230548
0.00012208631
0.00012114368
0.00012022716
0.00011933662
0.00011847164
0.00011763155
0.00011681548
0.00011602244
0.00011525129
0.00011450085
0.00011376988
0.00011305708
0.00011236118
0.00011168088
0.0001110149
0.00011036199
0.00010972093
0.00010909052
0.00010846962
0.00010785713
0.00010725198
0.00010665315
0.0001060597
0.00010547069
0.00010488525
0.00010430258
0.00010372188
0.00010314244
0.00010256357
0.00010198462
0.00010140499
0.00010082413
0.00010024152
9.9656669e-05
9.9069133e-05
9.8478499e-05
9.7884388e-05
9.728645e-05
9.6684368e-05
9.6077852e-05
9.5466639e-05
9.4850492e-05
9.4229199e-05
9.3602572e-05
9.2970443e-05
9.2332667e-05
9.1689118e-05
9.1039689e-05
9.038429e-05
8.9722848e-05
8.9055305e-05
8.838162e-05
8.7701763e-05
8.7015718e-05
8.6323482e-05
8.5625062e-05
8.4920476e-05
8.4209753e-05
8.3492929e-05
8.2770049e-05
8.2041168e-05
8.1306345e-05
8.0565647e-05
7.9819148e-05
7.9066927e-05
7.8309066e-05
7.7545655e-05
7.6776785e-05
7.6002553e-05
7.5223057e-05
7.44384e-05
7.3648686e-05
7.2854022e-05
7.2054516e-05
7.1250277e-05
7.0441417e-05
6.9628048e-05
6.8810283e-05
6.7988234e-05
6.7162014e-05
6.6331737e-05
6.5497515e-05
6.465946e-05
6.3817685e-05
6.2972301e-05
6.2123416e-05
6.1271141e-05
6.0415583e-05
5.9556849e-05
5.8695042e-05
5.7830268e-05
5.6962627e-05
5.609222e-05
5.5219145e-05
5.4343499e-05
5.3465376e-05
5.2584869e-05
5.1702069e-05
5.0817063e-05
4.992994e-05
4.9040782e-05
4.8149673e-05
4.7256693e-05
4.6361919e-05
4.5465428e-05
4.4567294e-05
4.3667587e-05
4.2766378e-05
4.1863734e-05
4.0959719e-05
4.0054398e-05
3.9147831e-05
3.8240077e-05
3.7331192e-05
3.6421232e-05
3.551025e-05
3.4598296e-05
3.3685419e-05
3.2771666e-05
3.1857082e-05
3.0941711e-05
3.0025593e-05
2.9108768e-05
2.8191275e-05
2.7273149e-05
2.6354424e-05
2.5435133e-05
2.4515308e-05
2.3594978e-05
2.267417e-05
2.1752911e-05
2.0831226e-05
1.9909138e-05
1.898667e-05
1.8063841e-05
1.7140671e-05
1.6217179e-05
1.529338e-05
1.436929e-05
1.3444924e-05
1.2520296e-05
1.1595419e-05
1.0670305e-05
9.7449685e-06
8.8194236e-06
7.8936867e-06
6.9677774e-06
6.0417209e-06
5.1155516e-06
4.1893023e-06
3.2629443e-06
2.3367388e-06
1.4129123e-06
4.8674227e-07
-0.00041375468
-0.00024774917
-0.00015144634
-0.00010177529
-6.6628201e-05
-3.9426435e-05
-1.7526356e-05
1.3028974e-06
1.8172028e-05
3.3535365e-05
4.7597923e-05
6.0449118e-05
7.2124231e-05
8.2643084e-05
9.2028924e-05
0.00010031568
0.00010754967
0.00011378858
0.00011909902
0.00012355368
0.00012722858
0.00013020057
0.0001325453
0.00013433564
0.00013564048
0.00013652402
0.00013704523
0.0001372577
0.00013720961
0.00013694389
0.00013649846
0.00013590655
0.00013519708
0.00013439504
0.00013352206
0.00013259625
0.00013163282
0.00013064466
0.00012964249
0.00012863509
0.00012762961
0.00012663176
0.00012564605
0.00012467594
0.00012372401
0.00012279212
0.00012188148
0.00012099282
0.00012012643
0.00011928225
0.00011845995
0.00011765897
0.00011687857
0.0001161179
0.00011537597
0.00011465176
0.00011394416
0.00011325207
0.00011257435
0.00011190986
0.00011125749
0.00011061614
0.00010998472
0.0001093622
0.00010874755
0.00010813981
0.00010753803
0.00010694134
0.00010634886
0.0001057598
0.00010517338
0.00010458888
0.00010400561
0.00010342292
0.0001028402
0.00010225689
0.00010167244
0.00010108637
0.0001004982
9.9907509e-05
9.9313892e-05
9.8716983e-05
9.8116439e-05
9.7511951e-05
9.6903231e-05
9.629002e-05
9.5672083e-05
9.5049207e-05
9.4421201e-05
9.3787897e-05
9.3149146e-05
9.2504817e-05
9.1854797e-05
9.1198992e-05
9.0537322e-05
8.9869723e-05
8.9196146e-05
8.8516555e-05
8.7830926e-05
8.7139248e-05
8.6441521e-05
8.5737755e-05
8.5027971e-05
8.4312198e-05
8.3590473e-05
8.2862843e-05
8.2129361e-05
8.1390086e-05
8.0645085e-05
7.9894429e-05
7.9138196e-05
7.8376468e-05
7.760933e-05
7.6836872e-05
7.6059189e-05
7.5276376e-05
7.4488533e-05
7.3695761e-05
7.2898165e-05
7.2095849e-05
7.128892e-05
7.0477487e-05
6.9661657e-05
6.8841542e-05
6.8017249e-05
6.718889e-05
6.6356574e-05
6.5520412e-05
6.4680511e-05
6.3836982e-05
6.2989931e-05
6.2139466e-05
6.1285693e-05
6.0428717e-05
5.9568641e-05
5.8705568e-05
5.7839598e-05
5.697083e-05
5.6099363e-05
5.522529e-05
5.4348708e-05
5.3469707e-05
5.2588378e-05
5.1704809e-05
5.0819087e-05
4.9931296e-05
4.9041519e-05
4.8149834e-05
4.7256322e-05
4.6361057e-05
4.5464113e-05
4.4565563e-05
4.3665477e-05
4.2763922e-05
4.1860963e-05
4.0956665e-05
4.0051089e-05
3.9144294e-05
3.8236337e-05
3.7327275e-05
3.6417161e-05
3.5506045e-05
3.4593978e-05
3.3681008e-05
3.2767179e-05
3.1852537e-05
3.0937123e-05
3.0020978e-05
2.910414e-05
2.8186646e-05
2.7268531e-05
2.6349829e-05
2.5430572e-05
2.4510791e-05
2.3590513e-05
2.2669767e-05
2.1748577e-05
2.082697e-05
1.9904967e-05
1.898259e-05
1.805986e-05
1.7136795e-05
1.6213415e-05
1.5289734e-05
1.4365771e-05
1.3441539e-05
1.2517053e-05
1.1592329e-05
1.066738e-05
9.7422212e-06
8.8168703e-06
7.891346e-06
6.9656709e-06
6.0398728e-06
5.1139883e-06
4.1880515e-06
3.2620339e-06
2.3361831e-06
1.4127109e-06
4.8714571e-07
-0.00069656649
-0.00031236433
-0.00015400601
-9.3922051e-05
-5.6461685e-05
-2.9474295e-05
-8.7851595e-06
8.6922195e-06
2.4303146e-05
3.8529221e-05
5.1567941e-05
6.3497833e-05
7.4345667e-05
8.4125687e-05
9.2857275e-05
0.00010057106
0.00010730995
0.00011312771
0.00011808646
0.00012225389
0.00012570061
0.00012849783
0.00013071549
0.00013242082
0.00013367728
0.00013454393
0.00013507494
0.00013531954
0.00013532192
0.00013512147
0.00013475297
0.00013424689
0.0001336298
0.00013292489
0.00013215173
0.00013132677
0.00013046415
0.00012957577
0.00012867148
0.00012775941
0.00012684614
0.00012593698
0.00012503612
0.00012414678
0.00012327139
0.00012241173
0.00012156896
0.00012074383
0.00011993666
0.00011914747
0.00011837603
0.00011762191
0.00011688451
0.0001161631
0.00011545689
0.00011476498
0.00011408648
0.00011342041
0.00011276584
0.00011212178
0.0001114873
0.00011086146
0.00011024333
0.00010963203
0.00010902669
0.00010842649
0.00010783063
0.00010723836
0.00010664893
0.00010606167
0.00010547591
0.00010489104
0.00010430647
0.00010372165
0.00010313605
0.00010254918
0.0001019606
0.00010136987
0.00010077659
0.0001001804
9.9580949e-05
9.897792e-05
9.8371022e-05
9.7759985e-05
9.7144565e-05
9.6524539e-05
9.5899702e-05
9.5269873e-05