/*--------------------------------*- C++ -*----------------------------------*\
| =========                 |                                                 |
| \\      /  F ield         | OpenFOAM: The Open Source CFD Toolbox           |
|  \\    /   O peration     | Version:  2406                                  |
|   \\  /    A nd           | Website:  www.openfoam.com                      |
|    \\/     M anipulation  |                                                 |
\*---------------------------------------------------------------------------*/
FoamFile
{
    version     2.0;
    format      ascii;
    arch        "LSB;label=32;scalar=64";
    class       surfaceScalarField;
    location    "946";
    object      phi;
}
// * * * * * * * * * * * * * * * * * * * * * * * * * * * * * * * * * * * * * //

dimensions      [0 3 -1 0 0 0 0];

oriented        oriented;

internalField   nonuniform List<scalar> 
19351
(
-2.1817695e-14
2.1817695e-14
-8.7444778e-14
6.5627083e-14
-1.7328103e-13
8.5836255e-14
-2.5699658e-13
8.3715546e-14
-3.2539896e-13
6.8402386e-14
-3.7254368e-13
4.7144717e-14
-3.9724388e-13
2.4700199e-14
-4.0105274e-13
3.8088544e-15
-3.8687181e-13
-1.4180928e-14
-3.5808616e-13
-2.8785648e-14
-3.1807596e-13
-4.0010196e-14
-2.6995284e-13
-4.8123123e-14
-2.1643866e-13
-5.3514177e-14
-1.5982831e-13
-5.6610357e-14
-1.0200017e-13
-5.7828139e-14
-4.4450142e-14
-5.7550027e-14
1.1661306e-14
-5.6111448e-14
6.5460417e-14
-5.3799111e-14
1.1631397e-13
-5.0853548e-14
1.6378813e-13
-4.7474163e-14
2.0761157e-13
-4.3823439e-14
2.4764334e-13
-4.003177e-14
2.8384585e-13
-3.6202511e-14
3.162621e-13
-3.2416248e-14
3.4499664e-13
-2.8734546e-14
3.7019982e-13
-2.5203176e-14
3.920547e-13
-2.1854881e-14
4.1076642e-13
-1.8711725e-14
4.2655353e-13
-1.5787108e-14
4.39641e-13
-1.3087468e-14
4.5025473e-13
-1.0613735e-14
4.5861729e-13
-8.3625569e-15
4.6494462e-13
-6.3273302e-15
4.6944368e-13
-4.4990604e-15
4.7231076e-13
-2.8670748e-15
4.7373036e-13
-1.4196035e-15
4.7387461e-13
-1.4424853e-16
4.7290295e-13
9.7166304e-16
4.7096212e-13
1.9408247e-15
4.6818646e-13
2.7756624e-15
4.6469828e-13
3.4881754e-15
4.6060847e-13
4.0898141e-15
4.5601707e-13
4.5913994e-15
4.5101399e-13
5.0030754e-15
4.4567971e-13
5.3342866e-15
4.4008593e-13
5.5937739e-15
4.3429635e-13
5.7895857e-15
4.2836725e-13
5.9290978e-15
4.2234821e-13
6.0190424e-15
4.1628267e-13
6.0655411e-15
4.1020852e-13
6.0741416e-15
4.0415867e-13
6.0498552e-15
3.9816147e-13
5.997196e-15
3.9224125e-13
5.9202188e-15
3.864187e-13
5.8225561e-15
3.8071124e-13
5.7074542e-15
3.7513344e-13
5.5778069e-15
3.6969725e-13
5.4361873e-15
3.6441237e-13
5.2848778e-15
3.5928647e-13
5.1258978e-15
3.5432544e-13
4.9610293e-15
3.495336e-13
4.7918406e-15
3.449139e-13
4.6197074e-15
3.4046806e-13
4.4458332e-15
3.361968e-13
4.2712666e-15
3.3209988e-13
4.0969182e-15
3.281763e-13
3.9235746e-15
3.2442439e-13
3.7519126e-15
3.2084188e-13
3.5825107e-15
3.1742602e-13
3.41586e-15
3.1417365e-13
3.2523742e-15
3.1108125e-13
3.0923982e-15
3.0814503e-13
2.9362159e-15
3.0536097e-13
2.7840574e-15
3.0272487e-13
2.6361053e-15
3.0023237e-13
2.4925003e-15
2.9787902e-13
2.3533464e-15
2.9566031e-13
2.218715e-15
2.9357166e-13
2.0886497e-15
2.9160849e-13
1.9631689e-15
2.8976622e-13
1.8422698e-15
2.8804029e-13
1.725931e-15
2.8642617e-13
1.6141149e-15
2.849194e-13
1.5067701e-15
2.8351557e-13
1.4038334e-15
2.8221034e-13
1.3052314e-15
2.8099945e-13
1.2108825e-15
2.7987875e-13
1.1206979e-15
2.7884417e-13
1.0345829e-15
2.7789173e-13
9.5243824e-16
2.7701757e-13
8.7416086e-16
2.7621793e-13
7.9964481e-16
2.7548914e-13
7.2878204e-16
2.7482768e-13
6.6146303e-16
2.742301e-13
5.9757743e-16
2.7369309e-13
5.370145e-16
2.7321342e-13
4.7966362e-16
2.7278801e-13
4.2541468e-16
2.7241385e-13
3.7415838e-16
2.7208806e-13
3.2578658e-16
2.7180787e-13
2.801925e-16
2.715706e-13
2.37271e-16
2.7137368e-13
1.9691868e-16
2.7121464e-13
1.5903414e-16
2.7109113e-13
1.2351802e-16
2.7100085e-13
9.0273144e-17
2.7094165e-13
5.920462e-17
2.7091143e-13
3.0219878e-17
2.709082e-13
3.2287374e-18
2.7093005e-13
-2.1856548e-17
2.7097517e-13
-4.5121291e-17
2.7104182e-13
-6.6648363e-17
2.7112834e-13
-8.6518149e-17
2.7123315e-13
-1.0480859e-16
2.7135474e-13
-1.2159518e-16
2.7149169e-13
-1.3695101e-16
2.7164264e-13
-1.5094677e-16
2.7180629e-13
-1.6365078e-16
2.7198142e-13
-1.7512904e-16
2.7216686e-13
-1.8544527e-16
2.7236152e-13
-1.9466092e-16
2.7256435e-13
-2.0283525e-16
2.7277438e-13
-2.1002535e-16
2.7299066e-13
-2.1628621e-16
2.7321233e-13
-2.2167075e-16
2.7343856e-13
-2.2622987e-16
2.7366857e-13
-2.3001251e-16
2.7390164e-13
-2.3306569e-16
2.7413707e-13
-2.3543454e-16
2.7437423e-13
-2.3716242e-16
2.7461252e-13
-2.3829087e-16
2.7485138e-13
-2.3885973e-16
2.7509029e-13
-2.3890719e-16
2.7532876e-13
-2.3846978e-16
2.7556634e-13
-2.3758247e-16
2.7580261e-13
-2.3627869e-16
2.760372e-13
-2.3459041e-16
2.7626975e-13
-2.3254811e-16
2.7649993e-13
-2.3018092e-16
2.7672745e-13
-2.2751659e-16
2.7695203e-13
-2.2458157e-16
2.7717343e-13
-2.2140102e-16
2.7739142e-13
-2.1799891e-16
2.7760582e-13
-2.1439799e-16
2.7781644e-13
-2.1061985e-16
2.7802312e-13
-2.0668501e-16
2.7822573e-13
-2.0261288e-16
2.7842415e-13
-1.9842186e-16
2.7861828e-13
-1.9412933e-16
2.7880803e-13
-1.8975173e-16
2.7899333e-13
-1.8530455e-16
2.7917414e-13
-1.8080242e-16
2.7935039e-13
-1.7625907e-16
2.7952208e-13
-1.7168745e-16
2.7968918e-13
-1.6709968e-16
2.7985168e-13
-1.6250715e-16
2.800096e-13
-1.5792051e-16
2.8016295e-13
-1.5334971e-16
2.8031175e-13
-1.4880405e-16
2.8045604e-13
-1.4429219e-16
2.8059586e-13
-1.3982217e-16
2.8073126e-13
-1.3540148e-16
2.808623e-13
-1.3103705e-16
2.8098903e-13
-1.267353e-16
2.8111153e-13
-1.2250216e-16
2.8122987e-13
-1.183431e-16
2.8134414e-13
-1.1426318e-16
2.814544e-13
-1.1026703e-16
2.8156076e-13
-1.0635894e-16
2.816633e-13
-1.0254285e-16
2.8176212e-13
-9.8822387e-17
2.8185732e-13
-9.5200926e-17
2.81949e-13
-9.1681596e-17
2.8203727e-13
-8.8267338e-17
2.8212223e-13
-8.4960949e-17
2.8220399e-13
-8.1765136e-17
2.8228267e-13
-7.8682584e-17
2.8235838e-13
-7.5716044e-17
2.8243125e-13
-7.2868434e-17
2.8250139e-13
-7.0142992e-17
2.8256893e-13
-6.7543466e-17
2.8263401e-13
-6.5074399e-17
2.8269675e-13
-6.2741517e-17
2.827573e-13
-6.0552312e-17
2.8281581e-13
-5.8516887e-17
2.8287246e-13
-5.6649239e-17
2.8292743e-13
-5.4969188e-17
2.8298093e-13
-5.3505363e-17
2.8303323e-13
-5.229983e-17
2.8308465e-13
-5.1415405e-17
2.8313559e-13
-5.0947333e-17
2.8318663e-13
-5.1042197e-17
2.8323856e-13
-5.1928733e-17
2.8329253e-13
-5.3968623e-17
2.8335027e-13
-5.774124e-17
2.8341444e-13
-6.4171493e-17
2.8348908e-13
-7.4644003e-17
2.8358025e-13
-9.1172797e-17
2.8369858e-13
-1.1832011e-16
-1.5917974e-16
-7.1824555e-14
9.3642249e-14
-2.2814578e-13
2.2194831e-13
-4.1518498e-13
2.7287545e-13
-5.9080154e-13
2.5933211e-13
-7.2930846e-13
2.069093e-13
-8.190911e-13
1.3692736e-13
-8.5819115e-13
6.380025e-14
-8.5038476e-13
-3.9975318e-15
-8.0232134e-13
-6.2244355e-14
-7.2168986e-13
-1.0941712e-13
-6.1612998e-13
-1.4557008e-13
-4.9265309e-13
-1.7160002e-13
-3.5738137e-13
-1.8878589e-13
-2.154755e-13
-1.9851624e-13
-7.1163423e-14
-2.0214021e-13
7.2171748e-14
-2.008852e-13
2.1188166e-13
-1.9582136e-13
3.4595728e-13
-1.8787473e-13
4.7292627e-13
-1.7782254e-13
5.9175901e-13
-1.6630691e-13
7.0178955e-13
-1.5385397e-13
8.0264766e-13
-1.4088988e-13
8.9420085e-13
-1.277557e-13
9.765052e-13
-1.147206e-13
1.049764e-12
-1.0199334e-13
1.1142929e-12
-8.9732118e-14
1.170491e-12
-7.8052988e-14
1.2188164e-12
-6.7037115e-14
1.2597663e-12
-5.6736961e-14
1.2938604e-12
-4.7181605e-14
1.321628e-12
-3.8381297e-14
1.3435968e-12
-3.0331355e-14
1.3602849e-12
-2.301548e-14
1.3721944e-12
-1.6408565e-14
1.3798064e-12
-1.047905e-14
1.3835777e-12
-5.1908806e-15
1.3839385e-12
-5.0511052e-16
1.3812914e-12
3.6188381e-15
1.37601e-12
7.2222247e-15
1.3684396e-12
1.0346028e-14
1.3588975e-12
1.303029e-14
1.3476737e-12
1.5313635e-14
1.3350321e-12
1.7232928e-14
1.3212122e-12
1.8823052e-14
1.3064297e-12
2.0116768e-14
1.2908788e-12
2.1144651e-14
1.2747333e-12
2.1935071e-14
1.2581482e-12
2.2514229e-14
1.241261e-12
2.290621e-14
1.2241935e-12
2.313307e-14
1.2070527e-12
2.3214931e-14
1.1899325e-12
2.3170091e-14
1.1729145e-12
2.301514e-14
1.1560697e-12
2.2765072e-14
1.1394588e-12
2.2433405e-14
1.123134e-12
2.2032292e-14
1.1071392e-12
2.1572633e-14
1.0915112e-12
2.1064178e-14
1.0762804e-12
2.0515628e-14
1.0614716e-12
1.9934728e-14
1.0471043e-12
1.9328353e-14
1.0331935e-12
1.8702593e-14
1.0197504e-12
1.8062823e-14
1.0067825e-12
1.7413774e-14
9.9429412e-13
1.6759599e-14
9.8228711e-13
1.6103927e-14
9.7076077e-13
1.5449919e-14
9.5971237e-13
1.4800315e-14
9.491374e-13
1.4157479e-14
9.3902982e-13
1.3523435e-14
9.2938229e-13
1.289991e-14
9.2018633e-13
1.228836e-14
9.1143254e-13
1.1690002e-14
9.0311075e-13
1.1105841e-14
8.9521017e-13
1.0536695e-14
8.8771945e-13
9.9832107e-15
8.8062691e-13
9.4458909e-15
8.7392052e-13
8.9251061e-15
8.6758806e-13
8.4211122e-15
8.6161716e-13
7.9340643e-15
8.559954e-13
7.4640286e-15
8.5071034e-13
7.0109946e-15
8.4574957e-13
6.5748839e-15
8.4110078e-13
6.1555603e-15
8.3675177e-13
5.752837e-15
8.3269052e-13
5.366484e-15
8.2890517e-13
4.9962346e-15
8.2538408e-13
4.6417909e-15
8.2211583e-13
4.3028286e-15
8.1908927e-13
3.9790023e-15
8.1629348e-13
3.6699485e-15
8.1371783e-13
3.3752899e-15
8.1135197e-13
3.0946382e-15
8.0918584e-13
2.8275967e-15
8.0720965e-13
2.5737633e-15
8.0541394e-13
2.3327323e-15
8.037895e-13
2.1040963e-15
8.0232747e-13
1.8874479e-15
8.0101925e-13
1.6823812e-15
7.9985654e-13
1.4884933e-15
7.9883135e-13
1.3053849e-15
7.9793595e-13
1.1326617e-15
7.9716294e-13
9.6993501e-16
7.9650515e-13
8.1682259e-16
7.9595572e-13
6.7294909e-16
7.9550804e-13
5.3794662e-16
7.9515579e-13
4.1145517e-16
7.9489289e-13
2.9312291e-16
7.9471351e-13
1.8260649e-16
7.9461208e-13
7.9571225e-17
7.9458327e-13
-1.6308766e-17
7.9462197e-13
-1.0535042e-16
7.9472331e-13
-1.8786177e-16
7.9488264e-13
-2.6414182e-16
7.9509553e-13
-3.344806e-16
7.9535773e-13
-3.9915922e-16
7.9566524e-13
-4.5844992e-16
7.960142e-13
-5.1261616e-16
7.9640098e-13
-5.6191271e-16
7.9682212e-13
-6.065858e-16
7.9727433e-13
-6.4687323e-16
7.977545e-13
-6.830045e-16
7.9825968e-13
-7.1520102e-16
7.9878706e-13
-7.4367621e-16
7.9933403e-13
-7.686357e-16
7.9989807e-13
-7.902775e-16
8.0047685e-13
-8.0879214e-16
8.0106815e-13
-8.243629e-16
8.0166988e-13
-8.3716594e-16
8.0228008e-13
-8.4737051e-16
8.0289693e-13
-8.5513911e-16
8.035187e-13
-8.6062769e-16
8.0414377e-13
-8.639858e-16
8.0477066e-13
-8.6535677e-16
8.0539795e-13
-8.648779e-16
8.0602435e-13
-8.6268064e-16
8.0664865e-13
-8.5889069e-16
8.0726973e-13
-8.5362825e-16
8.0788656e-13
-8.4700816e-16
8.0849818e-13
-8.3914e-16
8.0910372e-13
-8.3012835e-16
8.0970239e-13
-8.2007287e-16
8.1029346e-13
-8.0906847e-16
8.1087627e-13
-7.9720548e-16
8.1145021e-13
-7.8456979e-16
8.1201477e-13
-7.7124298e-16
8.1256946e-13
-7.573025e-16
8.1311386e-13
-7.4282175e-16
8.136476e-13
-7.2787029e-16
8.1417036e-13
-7.1251394e-16
8.1468186e-13
-6.9681491e-16
8.1518189e-13
-6.8083193e-16
8.1567025e-13
-6.646204e-16
8.1614679e-13
-6.4823252e-16
8.1661141e-13
-6.3171739e-16
8.1706402e-13
-6.1512113e-16
8.1750459e-13
-5.9848705e-16
8.1793309e-13
-5.8185571e-16
8.1834955e-13
-5.6526507e-16
8.1875401e-13
-5.4875061e-16
8.1914653e-13
-5.3234543e-16
8.195272e-13
-5.1608037e-16
8.1989615e-13
-4.9998412e-16
8.2025349e-13
-4.8408335e-16
8.2059939e-13
-4.6840278e-16
8.2093401e-13
-4.5296534e-16
8.2125754e-13
-4.3779225e-16
8.2157017e-13
-4.2290314e-16
8.2187213e-13
-4.0831618e-16
8.2216363e-13
-3.9404819e-16
8.2244492e-13
-3.8011476e-16
8.2271625e-13
-3.6653039e-16
8.2297787e-13
-3.5330865e-16
8.2323007e-13
-3.404623e-16
8.2347311e-13
-3.2800352e-16
8.2370728e-13
-3.1594411e-16
8.239329e-13
-3.0429576e-16
8.2415025e-13
-2.9307033e-16
8.2435966e-13
-2.8228035e-16
8.2456145e-13
-2.7193949e-16
8.2475597e-13
-2.6206338e-16
8.2494356e-13
-2.5267057e-16
8.2512461e-13
-2.4378399e-16
8.2529948e-13
-2.3543301e-16
8.2546862e-13
-2.2765633e-16
8.2563248e-13
-2.2050628e-16
8.2579156e-13
-2.1405503e-16
8.2594646e-13
-2.0840372e-16
8.2609785e-13
-2.0369605e-16
8.2624657e-13
-2.0013831e-16
8.2639365e-13
-1.9802899e-16
8.2654041e-13
-1.9780243e-16
8.2668857e-13
-2.0009174e-16
8.2684042e-13
-2.0581726e-16
8.2699898e-13
-2.1630268e-16
8.2716819e-13
-2.3338464e-16
8.2735293e-13
-2.5938134e-16
8.2755864e-13
-2.9688703e-16
8.2778858e-13
-3.4824933e-16
-4.0495288e-16
-1.0913212e-13
2.0277437e-13
-3.2350569e-13
4.3632189e-13
-5.6215507e-13
5.1152483e-13
-7.7256989e-13
4.6974693e-13
-9.2609755e-13
3.6043696e-13
-1.0118225e-12
2.2265227e-13
-1.0302436e-12
8.2221391e-14
-9.882231e-13
-4.6018034e-14
-8.9550654e-13
-1.5496092e-13
-7.6260072e-13
-2.4232294e-13
-5.9955989e-13
-3.0861091e-13
-4.1539234e-13
-3.5576757e-13
-2.1783623e-13
-3.8634199e-13
-1.3337698e-14
-4.0301477e-13
1.9283956e-13
-4.0831747e-13
3.9649468e-13
-4.0454031e-13
5.9435814e-13
-3.9368482e-13
7.839358e-13
-3.7745239e-13
9.6338512e-13
-3.5727187e-13
1.131407e-12
-3.3432883e-13
1.2871509e-12
-3.0959783e-13
1.4301336e-12
-2.8387261e-13
1.5601711e-12
-2.5779313e-13
1.6773196e-12
-2.3186917e-13
1.7818269e-12
-2.0650056e-13
1.8740893e-12
-1.8199451e-13
1.9546167e-12
-1.5858046e-13
2.0240025e-12
-1.3642285e-13
2.0828976e-12
-1.1563205e-13
2.1319898e-12
-9.6273874e-14
2.1719863e-12
-7.8377764e-14
2.2035988e-12
-6.1943876e-14
2.2275325e-12
-4.6949165e-14
2.2444765e-12
-3.3352608e-14
2.2550971e-12
-2.1099634e-14
2.2600321e-12
-1.0125858e-14
2.2598872e-12
-3.6019182e-16
2.2552333e-12
8.272715e-15
2.2466051e-12
1.5850462e-14
2.2345001e-12
2.245103e-14
2.219379e-12
2.8151381e-14
2.2016662e-12
3.3026426e-14
2.1817508e-12
3.7148274e-14
2.1599882e-12
4.058569e-14
2.1367012e-12
4.3403735e-14
2.1121823e-12
4.566355e-14
2.0866952e-12
4.7422252e-14
2.0604765e-12
4.8732916e-14
2.033738e-12
4.9644636e-14
2.0066685e-12
5.0202632e-14
1.979435e-12
5.0448396e-14
1.9521852e-12
5.0419867e-14
1.9250488e-12
5.0151625e-14
1.8981387e-12
4.967509e-14
1.8715534e-12
4.9018734e-14
1.8453774e-12
4.8208286e-14
1.8196831e-12
4.7266932e-14
1.7945318e-12
4.6215519e-14
1.7699747e-12
4.5072739e-14
1.7460541e-12
4.3855313e-14
1.7228043e-12
4.2578156e-14
1.7002523e-12
4.125454e-14
1.6784189e-12
3.9896242e-14
1.657319e-12
3.8513681e-14
1.6369626e-12
3.7116046e-14
1.6173551e-12
3.5711414e-14
1.5984981e-12
3.4306858e-14
1.5803899e-12
3.2908545e-14
1.5630255e-12
3.152183e-14
1.5463976e-12
3.0151334e-14
1.5304965e-12
2.8801022e-14
1.5153106e-12
2.7474271e-14
1.5008267e-12
2.6173933e-14
1.4870301e-12
2.4902389e-14
1.4739052e-12
2.3661602e-14
1.4614353e-12
2.2453163e-14
1.4496028e-12
2.1278329e-14
1.4383899e-12
2.0138068e-14
1.4277779e-12
1.9033084e-14
1.4177481e-12
1.7963855e-14
1.4082815e-12
1.6930655e-14
1.3993589e-12
1.593358e-14
1.3909612e-12
1.4972574e-14
1.3830693e-12
1.4047442e-14
1.3756643e-12
1.3157874e-14
1.3687273e-12
1.2303458e-14
1.3622399e-12
1.1483692e-14
1.3561837e-12
1.0698004e-14
1.3505407e-12
9.945755e-15
1.3452935e-12
9.2262545e-15
1.3404247e-12
8.5387679e-15
1.3359174e-12
7.8825251e-15
1.3317553e-12
7.2567269e-15
1.3279224e-12
6.6605524e-15
1.324403e-12
6.0931637e-15
1.321182e-12
5.5537119e-15
1.3182448e-12
5.0413407e-15
1.315577e-12
4.5551909e-15
1.313165e-12
4.0944034e-15
1.3109954e-12
3.6581225e-15
1.3090552e-12
3.2454986e-15
1.3073322e-12
2.8556903e-15
1.3058143e-12
2.4878663e-15
1.3044899e-12
2.1412073e-15
1.3033479e-12
1.8149074e-15
1.3023777e-12
1.5081753e-15
1.3015689e-12
1.2202355e-15
1.3009117e-12
9.5032861e-16
1.3003966e-12
6.9771278e-16
1.3000145e-12
4.6166373e-16
1.2997567e-12
2.4147539e-16
1.2996149e-12
3.6460128e-17
1.2995811e-12
-1.5405097e-16
1.2996477e-12
-3.3070807e-16
1.2998073e-12
-4.9414251e-16
1.3000531e-12
-6.449668e-16
1.3003785e-12
-7.8377474e-16
1.300777e-12
-9.1114152e-16
1.3012427e-12
-1.0276239e-15
1.3017699e-12
-1.1337605e-15
1.3023531e-12
-1.230072e-15
1.3029871e-12
-1.3170611e-15
1.3036671e-12
-1.3952136e-15
1.3043885e-12
-1.4649979e-15
1.3051467e-12
-1.5268656e-15
1.3059377e-12
-1.5812523e-15
1.3067575e-12
-1.6285771e-15
1.3076023e-12
-1.6692436e-15
1.3084688e-12
-1.7036403e-15
1.3093536e-12
-1.7321404e-15
1.3102535e-12
-1.7551026e-15
1.3111658e-12
-1.7728717e-15
1.3120876e-12
-1.7857782e-15
1.3130164e-12
-1.7941394e-15
1.3139497e-12
-1.7982595e-15
1.3148855e-12
-1.7984299e-15
1.3158215e-12
-1.7949295e-15
1.3167559e-12
-1.7880252e-15
1.3176869e-12
-1.7779723e-15
1.3186128e-12
-1.7650147e-15
1.319532e-12
-1.7493852e-15
1.3204432e-12
-1.7313061e-15
1.3213452e-12
-1.710989e-15
1.3222366e-12
-1.6886358e-15
1.3231165e-12
-1.6644385e-15
1.3239838e-12
-1.6385798e-15
1.3248377e-12
-1.6112332e-15
1.3256775e-12
-1.5825633e-15
1.3265023e-12
-1.5527266e-15
1.3273117e-12
-1.521871e-15
1.328105e-12
-1.4901366e-15
1.3288818e-12
-1.4576559e-15
1.3296417e-12
-1.424554e-15
1.3303845e-12
-1.390949e-15
1.3311097e-12
-1.3569521e-15
1.3318172e-12
-1.3226681e-15
1.3325069e-12
-1.2881953e-15
1.3331787e-12
-1.2536262e-15
1.3338325e-12
-1.2190474e-15
1.3344683e-12
-1.1845399e-15
1.3350861e-12
-1.1501798e-15
1.3356861e-12
-1.1160378e-15
1.3362683e-12
-1.08218e-15
1.3368329e-12
-1.0486679e-15
1.33738e-12
-1.0155588e-15
1.3379099e-12
-9.829059e-16
1.3384229e-12
-9.5075864e-16
1.3389192e-12
-9.1916286e-16
1.339399e-12
-8.8816112e-16
1.3398628e-12
-8.5779294e-16
1.3403107e-12
-8.2809508e-16
1.3407433e-12
-7.9910182e-16
1.3411608e-12
-7.7084528e-16
1.3415637e-12
-7.4335578e-16
1.3419524e-12
-7.1666223e-16
1.3423272e-12
-6.9079259e-16
1.3426887e-12
-6.6577444e-16
1.3430373e-12
-6.4163568e-16
1.3433734e-12
-6.1840538e-16
1.3436976e-12
-5.9611498e-16
1.3440103e-12
-5.7479974e-16
1.3443121e-12
-5.5450088e-16
1.3446036e-12
-5.3526838e-16
1.3448854e-12
-5.1716491e-16
1.345158e-12
-5.0027142e-16
1.3454222e-12
-4.846949e-16
1.3456787e-12
-4.7057952e-16
1.3459284e-12
-4.5812221e-16
1.3461723e-12
-4.4759481e-16
1.3464115e-12
-4.3937486e-16
1.3466475e-12
-4.3398785e-16
1.3468819e-12
-4.3216337e-16
1.3471167e-12
-4.3490507e-16
1.3473544e-12
-4.4356765e-16
1.347598e-12
-4.599143e-16
1.3478507e-12
-4.8607096e-16
1.3481155e-12
-5.2417257e-16
1.3483941e-12
-5.7544476e-16
1.3486837e-12
-6.3789394e-16
-6.9610202e-16
-1.338613e-13
3.3663567e-13
-3.763764e-13
6.7883698e-13
-6.2357582e-13
7.5872425e-13
-8.1864978e-13
6.6482089e-13
-9.373062e-13
4.7909339e-13
-9.7520457e-13
2.6055064e-13
-9.3877532e-13
4.5792148e-14
-8.3924781e-13
-1.4554555e-13
-6.8923787e-13
-3.0497086e-13
-5.009327e-13
-4.3062811e-13
-2.8523916e-13
-5.2430445e-13
-5.1489663e-14
-5.8951706e-13
1.9253857e-13
-6.3037022e-13
4.4049591e-13
-6.5097211e-13
6.8729774e-13
-6.5511929e-13
9.2892541e-13
-6.4616799e-13
1.1622515e-12
-6.2701095e-13
1.3848975e-12
-6.0009833e-13
1.5951079e-12
-5.6748233e-13
1.7916466e-12
-5.3086744e-13
1.9737079e-12
-4.9165921e-13
2.1408437e-12
-4.5100834e-13
2.2928995e-12
-4.0984898e-13
2.4299618e-12
-3.6893147e-13
2.5523115e-12
-3.2885022e-13
2.6603844e-12
-2.9006743e-13
2.7547373e-12
-2.5293336e-13
2.8360182e-12
-2.1770379e-13
2.9049414e-12
-1.8455525e-13
2.9622656e-12
-1.535981e-13
3.008776e-12
-1.2488811e-13
3.0452686e-12
-9.8436448e-14
3.0725378e-12
-7.4218409e-14
3.0913662e-12
-5.2180987e-14
3.1025159e-12
-3.2249362e-14
3.1067225e-12
-1.4332452e-14
3.1046899e-12
1.6724325e-15
3.0970866e-12
1.5875963e-14
3.0845436e-12
2.8393458e-14
3.0676527e-12
3.9342012e-14
3.0469658e-12
4.8838278e-14
3.0229954e-12
5.6996783e-14
2.996215e-12
6.3928656e-14
2.9670601e-12
6.9740665e-14
2.9359292e-12
7.4534546e-14
2.9031862e-12
7.8406545e-14
2.8691614e-12
8.1447147e-14
2.8341533e-12
8.3740959e-14
2.7984312e-12
8.5366701e-14
2.7622366e-12
8.6397294e-14
2.725785e-12
8.6900023e-14
2.6892681e-12
8.6936742e-14
2.6528556e-12
8.6564123e-14
2.6166967e-12
8.5833925e-14
2.5809222e-12
8.4793286e-14
2.5456455e-12
8.3485009e-14
2.5109645e-12
8.1947858e-14
2.4769632e-12
8.0216849e-14
2.4437124e-12
7.8323528e-14
2.4112715e-12
7.6296244e-14
2.3796892e-12
7.4160405e-14
2.3490051e-12
7.1938725e-14
2.3192499e-12
6.9651453e-14
2.2904469e-12
6.7316588e-14
2.2626129e-12
6.4950081e-14
2.2357583e-12
6.2566023e-14
2.2098883e-12
6.0176815e-14
2.1850036e-12
5.7793331e-14
2.1611003e-12
5.542506e-14
2.1381714e-12
5.3080247e-14
2.1162064e-12
5.076601e-14
2.0951922e-12
4.8488458e-14
2.0751134e-12
4.6252789e-14
2.0559524e-12
4.406339e-14
2.0376901e-12
4.1923916e-14
2.0203059e-12
3.983737e-14
2.003778e-12
3.7806176e-14
1.9880838e-12
3.5832238e-14
1.9731999e-12
3.3917e-14
1.9591023e-12
3.2061498e-14
1.9457665e-12
3.0266408e-14
1.933168e-12
2.8532088e-14
1.921282e-12
2.6858613e-14
1.9100836e-12
2.5245816e-14
1.8995482e-12
2.3693312e-14
1.8896511e-12
2.2200533e-14
1.880368e-12
2.0766748e-14
1.871675e-12
1.9391086e-14
1.8635482e-12
1.8072559e-14
1.8559643e-12
1.6810078e-14
1.8489006e-12
1.560247e-14
1.8423347e-12
1.4448493e-14
1.8362445e-12
1.3346845e-14
1.8306089e-12
1.2296183e-14
1.825407e-12
1.1295127e-14
1.8206184e-12
1.0342269e-14
1.8162235e-12
9.4361884e-15
1.8122033e-12
8.5754493e-15
1.8085391e-12
7.7586137e-15
1.805213e-12
6.9842445e-15
1.8022075e-12
6.2509109e-15
1.799506e-12
5.5571924e-15
1.7970922e-12
4.9016829e-15
1.7949504e-12
4.2829933e-15
1.7930656e-12
3.699755e-15
1.7914231e-12
3.1506216e-15
1.7900091e-12
2.6342715e-15
1.78881e-12
2.149409e-15
1.787813e-12
1.694766e-15
1.7870055e-12
1.2691031e-15
1.7863758e-12
8.7121036e-16
1.7859123e-12
4.9990825e-16
1.7856042e-12
1.5404785e-16
1.785441e-12
-1.6748868e-16
1.7854127e-12
-4.6578785e-16
1.7855096e-12
-7.4190497e-16
1.7857227e-12
-9.96864e-16
1.7860432e-12
-1.2316578e-15
1.7864628e-12
-1.4472483e-15
1.7869736e-12
-1.6445668e-15
1.7875681e-12
-1.8245144e-15
1.788239e-12
-1.9879621e-15
1.7889795e-12
-2.1357518e-15
1.7897832e-12
-2.2686962e-15
1.7906439e-12
-2.3875798e-15
1.7915558e-12
-2.493159e-15
1.7925134e-12
-2.586163e-15
1.7935115e-12
-2.6672944e-15
1.7945451e-12
-2.7372296e-15
1.7956095e-12
-2.7966192e-15
1.7967005e-12
-2.8460891e-15
1.7978139e-12
-2.8862411e-15
1.7989458e-12
-2.9176528e-15
1.8000925e-12
-2.940879e-15
1.8012507e-12
-2.9564519e-15
1.8024172e-12
-2.9648819e-15
1.8035889e-12
-2.9666579e-15
1.8047631e-12
-2.9622482e-15
1.8059372e-12
-2.9521008e-15
1.8071089e-12
-2.9366444e-15
1.8082758e-12
-2.9162883e-15
1.8094359e-12
-2.8914238e-15
1.8105873e-12
-2.8624238e-15
1.8117283e-12
-2.8296443e-15
1.8128573e-12
-2.7934243e-15
1.8139728e-12
-2.7540863e-15
1.8150735e-12
-2.7119374e-15
1.8161582e-12
-2.6672693e-15
1.8172259e-12
-2.6203588e-15
1.8182754e-12
-2.5714687e-15
1.8193062e-12
-2.5208479e-15
1.8203172e-12
-2.4687321e-15
1.821308e-12
-2.415344e-15
1.822278e-12
-2.3608943e-15
1.8232266e-12
-2.3055816e-15
1.8241535e-12
-2.2495932e-15
1.8250584e-12
-2.1931054e-15
1.8259411e-12
-2.1362839e-15
1.8268013e-12
-2.0792845e-15
1.827639e-12
-2.0222532e-15
1.8284542e-12
-1.9653268e-15
1.8292468e-12
-1.9086335e-15
1.8300169e-12
-1.8522927e-15
1.8307646e-12
-1.7964164e-15
1.8314902e-12
-1.7411085e-15
1.8321937e-12
-1.6864661e-15
1.8328756e-12
-1.6325795e-15
1.8335359e-12
-1.5795328e-15
1.8341752e-12
-1.5274041e-15
1.8347936e-12
-1.4762661e-15
1.8353917e-12
-1.4261868e-15
1.8359699e-12
-1.3772294e-15
1.8365285e-12
-1.3294535e-15
1.837068e-12
-1.2829152e-15
1.837589e-12
-1.237668e-15
1.838092e-12
-1.1937636e-15
1.8385775e-12
-1.1512527e-15
1.839046e-12
-1.1101862e-15
1.8394982e-12
-1.0706166e-15
1.8399347e-12
-1.0325999e-15
1.8403561e-12
-9.9619792e-16
1.8407631e-12
-9.6148153e-16
1.8411564e-12
-9.2853487e-16
1.8415367e-12
-8.9746124e-16
1.8419048e-12
-8.6839105e-16
1.8422616e-12
-8.4149277e-16
1.842608e-12
-8.1698792e-16
1.842945e-12
-7.951714e-16
1.8432739e-12
-7.7643884e-16
1.8435958e-12
-7.613224e-16
1.8439124e-12
-7.5053594e-16
1.8442252e-12
-7.4502784e-16
1.8445364e-12
-7.4603405e-16
1.8448479e-12
-7.5511019e-16
1.8451621e-12
-7.7409421e-16
1.8454809e-12
-8.0489066e-16
1.8458056e-12
-8.4885276e-16
1.8461356e-12
-9.0546891e-16
1.8464675e-12
-9.6981012e-16
-1.0252396e-15
-1.5124916e-13
4.8788483e-13
-3.92475e-13
9.2006282e-13
-6.019285e-13
9.6817775e-13
-7.2853977e-13
7.9143215e-13
-7.6134547e-13
5.1189909e-13
-7.0845655e-13
2.0766172e-13
-5.8499137e-13
-7.7673037e-14
-4.0705493e-13
-3.2348199e-13
-1.8927313e-13
-5.2275266e-13
5.601629e-14
-6.7591753e-13
3.1877459e-13
-7.8706275e-13
5.9099101e-13
-8.6173349e-13
8.6634484e-13
-9.0572405e-13
1.1398619e-12
-9.2448917e-13
1.4076423e-12
-9.228997e-13
1.6666485e-12
-9.051742e-13
1.9145402e-12
-8.7490265e-13
2.149549e-12
-8.3510713e-13
2.3703811e-12
-7.883144e-13
2.5761401e-12
-7.3662644e-13
2.7662646e-12
-6.8178374e-13
2.940476e-12
-6.2521968e-13
3.0987335e-12
-5.6810647e-13
3.2411957e-12
-5.113937e-13
3.3681863e-12
-4.5584084e-13
3.4801637e-12
-4.0204486e-13
3.5776943e-12
-3.5046388e-13
3.6614282e-12
-3.0143775e-13
3.7320789e-12
-2.5520594e-13
3.7904042e-12
-2.1192335e-13
3.8371903e-12
-1.7167422e-13
3.8732382e-12
-1.3448434e-13
3.8993516e-12
-1.0033187e-13
3.9163274e-12
-6.915678e-14
3.9249471e-12
-4.0869055e-14
3.9259704e-12
-1.5355768e-14
3.9201299e-12
7.5129625e-15
3.9081266e-12
2.7879295e-14
3.8906271e-12
4.5892933e-14
3.8682618e-12
6.1707314e-14
3.8416234e-12
7.5476667e-14
3.8112665e-12
8.7353679e-14
3.7777075e-12
9.7487649e-14
3.7414251e-12
1.0602307e-13
3.702861e-12
1.1309859e-13
3.6624214e-12
1.1884623e-13
3.6204776e-12
1.233909e-13
3.5773684e-12
1.2685013e-13
3.5334013e-12
1.293339e-13
3.4888539e-12
1.3094469e-13
3.4439763e-12
1.3177759e-13
3.3989926e-12
1.3192048e-13
3.3541024e-12
1.3145431e-13
3.3094829e-12
1.3045342e-13
3.2652904e-12
1.2898581e-13
3.2216618e-12
1.2711359e-13
3.1787164e-12
1.2489323e-13
3.1365572e-12
1.2237604e-13
3.0952723e-12
1.1960843e-13
3.0549362e-12
1.166323e-13
3.0156112e-12
1.1348541e-13
2.9773483e-12
1.1020165e-13
2.9401884e-12
1.0681138e-13
2.9041633e-12
1.0334171e-13
2.8692965e-12
9.9816789e-14
2.8356045e-12
9.6258033e-14
2.8030969e-12
9.2684402e-14
2.7717777e-12
8.9112598e-14
2.7416455e-12
8.5557277e-14
2.7126945e-12
8.2031242e-14
2.6849149e-12
7.8545618e-14
2.6582933e-12
7.5110011e-14
2.6328134e-12
7.1732662e-14
2.6084562e-12
6.8420577e-14
2.5852005e-12
6.5179654e-14
2.5630231e-12
6.2014799e-14
2.5418992e-12
5.8930024e-14
2.5218029e-12
5.5928546e-14
2.5027071e-12
5.301287e-14
2.4845837e-12
5.0184867e-14
2.4674042e-12
4.7445849e-14
2.4511397e-12
4.4796626e-14
2.4357608e-12
4.2237568e-14
2.4212379e-12
3.9768658e-14
2.4075417e-12
3.7389537e-14
2.3946427e-12
3.509955e-14
2.3825116e-12
3.2897781e-14
2.3711196e-12
3.078309e-14
2.360438e-12
2.8754143e-14
2.3504387e-12
2.6809442e-14
2.3410938e-12
2.4947349e-14
2.3323762e-12
2.3166107e-14
2.3242592e-12
2.1463866e-14
2.3167167e-12
1.9838694e-14
2.3097232e-12
1.8288597e-14
2.3032539e-12
1.6811533e-14
2.2972847e-12
1.5405427e-14
2.291792e-12
1.4068178e-14
2.2867529e-12
1.2797671e-14
2.2821454e-12
1.1591789e-14
2.2779478e-12
1.0448417e-14
2.2741396e-12
9.3654483e-15
2.2707005e-12
8.3407953e-15
2.2676111e-12
7.3723905e-15
2.2648526e-12
6.4581928e-15
2.2624071e-12
5.596191e-15
2.2602569e-12
4.7844071e-15
2.2583854e-12
4.0208996e-15
2.2567764e-12
3.3037654e-15
2.2554144e-12
2.6311416e-15
2.2542844e-12
2.0012079e-15
2.2533721e-12
1.412187e-15
2.2526638e-12
8.6234586e-16
2.2521463e-12
3.4999675e-16
2.2518071e-12
-1.265028e-16
2.2516339e-12
-5.6874931e-16
2.2516153e-12
-9.782937e-16
2.2517403e-12
-1.356641e-15
2.2519983e-12
-1.7052509e-15
2.2523793e-12
-2.0255376e-15
2.2528736e-12
-2.3188707e-15
2.2534723e-12
-2.5865756e-15
2.2541664e-12
-2.8299337e-15
2.2549479e-12
-3.0501837e-15
2.2558089e-12
-3.2485216e-15
2.2567418e-12
-3.4261022e-15
2.2577397e-12
-3.584039e-15
2.2587958e-12
-3.723406e-15
2.2599038e-12
-3.8452376e-15
2.2610577e-12
-3.9505303e-15
2.2622519e-12
-4.0402428e-15
2.2634809e-12
-4.1152974e-15
2.2647399e-12
-4.1765808e-15
2.2660239e-12
-4.2249448e-15
2.2673287e-12
-4.2612071e-15
2.2686499e-12
-4.2861526e-15
2.2699838e-12
-4.3005339e-15
2.2713266e-12
-4.3050721e-15
2.272675e-12
-4.3004581e-15
2.2740257e-12
-4.2873529e-15
2.2753758e-12
-4.2663888e-15
2.2767226e-12
-4.2381702e-15
2.2780634e-12
-4.2032742e-15
2.279396e-12
-4.1622516e-15
2.2807182e-12
-4.1156276e-15
2.282028e-12
-4.0639026e-15
2.2833236e-12
-4.0075533e-15
2.2846034e-12
-3.9470327e-15
2.2858658e-12
-3.8827717e-15
2.2871095e-12
-3.8151792e-15
2.2883333e-12
-3.7446434e-15
2.2895361e-12
-3.671532e-15
2.290717e-12
-3.5961931e-15
2.291875e-12
-3.5189562e-15
2.2930096e-12
-3.4401323e-15
2.29412e-12
-3.3600153e-15
2.2952058e-12
-3.278882e-15
2.2962665e-12
-3.1969931e-15
2.2973018e-12
-3.114594e-15
2.2983115e-12
-3.0319151e-15
2.2992953e-12
-2.9491726e-15
2.3002532e-12
-2.8665693e-15
2.3011852e-12
-2.7842949e-15
2.3020914e-12
-2.702527e-15
2.3029717e-12
-2.6214314e-15
2.3038264e-12
-2.5411629e-15
2.3046557e-12
-2.4618658e-15
2.3054598e-12
-2.3836748e-15
2.3062391e-12
-2.3067153e-15
2.3069939e-12
-2.2311045e-15
2.3077247e-12
-2.1569515e-15
2.3084318e-12
-2.0843587e-15
2.3091158e-12
-2.0134221e-15
2.3097771e-12
-1.9442324e-15
2.3104163e-12
-1.8768759e-15
2.311034e-12
-1.8114357e-15
2.3116307e-12
-1.747993e-15
2.3122072e-12
-1.6866286e-15
2.312764e-12
-1.6274249e-15
2.3133019e-12
-1.5704687e-15
2.3138215e-12
-1.515854e-15
2.3143237e-12
-1.4636862e-15
2.3148093e-12
-1.4140882e-15
2.315279e-12
-1.3672069e-15
2.3157339e-12
-1.3232237e-15
2.3161747e-12
-1.2823669e-15
2.3166027e-12
-1.2449293e-15
2.3170188e-12
-1.2112904e-15
2.3174243e-12
-1.1819449e-15
2.3178205e-12
-1.1575376e-15
2.3182089e-12
-1.138903e-15
2.3185909e-12
-1.1271041e-15
2.3189684e-12
-1.1234571e-15
2.3193428e-12
-1.1295126e-15
2.3197156e-12
-1.1469352e-15
2.3200879e-12
-1.1771785e-15
2.3204598e-12
-1.220759e-15
2.3208302e-12
-1.2759102e-15
2.3211969e-12
-1.3364327e-15
-1.3869701e-15
-1.64896e-13
6.5278082e-13
-3.6914747e-13
1.1243143e-12
-4.8265731e-13
1.0816876e-12
-4.7832048e-13
7.8709532e-13
-3.7075114e-13
4.0432975e-13
-1.8591119e-13
2.2821765e-14
5.1560003e-14
-3.1514423e-13
3.2210512e-13
-5.9402711e-13
6.1141122e-13
-8.1205876e-13
9.0941529e-13
-9.739216e-13
1.2091151e-12
-1.0867626e-12
1.505598e-12
-1.1582163e-12
1.7953494e-12
-1.1954755e-12
2.0757917e-12
-1.2049315e-12
2.3449891e-12
-1.1920971e-12
2.6014679e-12
-1.1616529e-12
2.8441064e-12
-1.1175412e-12
3.0720688e-12
-1.0630696e-12
3.2847622e-12
-1.0010077e-12
3.4818064e-12
-9.3367064e-13
3.6630109e-12
-8.6298831e-13
3.8283546e-12
-7.9056331e-13
3.9779661e-12
-7.17718e-13
4.1121061e-12
-6.4553375e-13