/*--------------------------------*- C++ -*----------------------------------*\
| =========                 |                                                 |
| \\      /  F ield         | OpenFOAM: The Open Source CFD Toolbox           |
|  \\    /   O peration     | Version:  2406                                  |
|   \\  /    A nd           | Website:  www.openfoam.com                      |
|    \\/     M anipulation  |                                                 |
\*---------------------------------------------------------------------------*/
FoamFile
{
    version     2.0;
    format      ascii;
    arch        "LSB;label=32;scalar=64";
    class       volVectorField;
    location    "946";
    object      U;
}
// * * * * * * * * * * * * * * * * * * * * * * * * * * * * * * * * * * * * * //

dimensions      [0 1 -1 0 0 0 0];

internalField   nonuniform List<vector> 
9800
(
(-6.2660539e-06 5.7159666e-06 0)
(-9.8278442e-05 2.7110561e-05 0)
(-0.00025765598 3.7584896e-05 0)
(-0.00043537685 3.7050263e-05 0)
(-0.00059207736 3.0848724e-05 0)
(-0.00070937726 2.2270543e-05 0)
(-0.00078123582 1.333189e-05 0)
(-0.0008087739 5.1173192e-06 0)
(-0.00079694461 -1.887886e-06 0)
(-0.00075235242 -7.537533e-06 0)
(-0.0006819432 -1.1861091e-05 0)
(-0.00059230636 -1.4979214e-05 0)
(-0.00048932163 -1.7052381e-05 0)
(-0.00037802134 -1.8251556e-05 0)
(-0.0002625766 -1.8741592e-05 0)
(-0.00014635063 -1.8672183e-05 0)
(-3.1985003e-05 -1.817245e-05 0)
(7.8503602e-05 -1.7352994e-05 0)
(0.00018362626 -1.6309455e-05 0)
(0.00028233054 -1.5121494e-05 0)
(0.00037392368 -1.3850789e-05 0)
(0.00045800551 -1.2545453e-05 0)
(0.0005344081 -1.1242644e-05 0)
(0.00060314609 -9.9703862e-06 0)
(0.0006643751 -8.7491997e-06 0)
(0.00071835698 -7.5934971e-06 0)
(0.0007654312 -6.5127703e-06 0)
(0.00080599117 -5.5125886e-06 0)
(0.00084046507 -4.5954373e-06 0)
(0.00086930024 -3.7614184e-06 0)
(0.00089295081 -3.0088324e-06 0)
(0.00091186799 -2.3346585e-06 0)
(0.00092649259 -1.7349469e-06 0)
(0.00093724942 -1.205136e-06 0)
(0.0009445433 -7.4030547e-07 0)
(0.00094875631 -3.3537434e-07 0)
(0.00095024612 1.4743213e-08 0)
(0.00094934511 3.150383e-07 0)
(0.00094636015 5.7034775e-07 0)
(0.0009415728 7.852554e-07 0)
(0.00093524007 9.6406802e-07 0)
(0.00092759543 1.110788e-06 0)
(0.00091885 1.2291037e-06 0)
(0.00090919385 1.3223912e-06 0)
(0.00089879742 1.3937221e-06 0)
(0.00088781293 1.4458768e-06 0)
(0.00087637576 1.4813603e-06 0)
(0.00086460585 1.5024202e-06 0)
(0.00085260903 1.5110657e-06 0)
(0.00084047823 1.5090863e-06 0)
(0.00082829473 1.4980712e-06 0)
(0.00081612922 1.479427e-06 0)
(0.00080404287 1.4543951e-06 0)
(0.0007920883 1.4240683e-06 0)
(0.0007803104 1.3894057e-06 0)
(0.00076874722 1.3512468e-06 0)
(0.00075743065 1.3103244e-06 0)
(0.00074638711 1.2672762e-06 0)
(0.0007356382 1.2226556e-06 0)
(0.00072520119 1.1769414e-06 0)
(0.00071508955 1.1305458e-06 0)
(0.00070531343 1.0838233e-06 0)
(0.00069588001 1.0370764e-06 0)
(0.00068679391 9.9056283e-07 0)
(0.00067805751 9.4450033e-07 0)
(0.0006696712 8.99072e-07 0)
(0.00066163372 8.5443041e-07 0)
(0.0006539423 8.1070158e-07 0)
(0.00064659297 7.6798828e-07 0)
(0.00063958066 7.263731e-07 0)
(0.0006328994 6.8592106e-07 0)
(0.00062654247 6.4668196e-07 0)
(0.00062050252 6.0869242e-07 0)
(0.00061477169 5.719777e-07 0)
(0.00060934172 5.3655326e-07 0)
(0.00060420401 5.0242614e-07 0)
(0.00059934972 4.6959621e-07 0)
(0.00059476985 4.3805721e-07 0)
(0.00059045528 4.0779766e-07 0)
(0.00058639682 3.7880172e-07 0)
(0.00058258527 3.5104987e-07 0)
(0.00057901147 3.2451953e-07 0)
(0.00057566631 2.991856e-07 0)
(0.00057254076 2.7502095e-07 0)
(0.00056962593 2.5199677e-07 0)
(0.00056691304 2.3008302e-07 0)
(0.00056439348 2.0924865e-07 0)
(0.00056205881 1.8946189e-07 0)
(0.00055990079 1.7069053e-07 0)
(0.00055791134 1.5290206e-07 0)
(0.00055608262 1.3606384e-07 0)
(0.00055440697 1.2014331e-07 0)
(0.00055287697 1.0510805e-07 0)
(0.0005514854 9.0925943e-08 0)
(0.00055022527 7.7565206e-08 0)
(0.0005490898 6.4994527e-08 0)
(0.00054807246 5.3183097e-08 0)
(0.0005471669 4.2100677e-08 0)
(0.00054636703 3.1717638e-08 0)
(0.00054566695 2.2005002e-08 0)
(0.00054506099 1.293447e-08 0)
(0.00054454369 4.4784469e-09 0)
(0.00054410979 -3.3899454e-09 0)
(0.00054375426 -1.0696849e-08 0)
(0.00054347223 -1.7467667e-08 0)
(0.00054325907 -2.3727053e-08 0)
(0.00054311032 -2.9498919e-08 0)
(0.00054302171 -3.4806425e-08 0)
(0.00054298915 -3.9671998e-08 0)
(0.00054300875 -4.4117331e-08 0)
(0.00054307675 -4.8163346e-08 0)
(0.00054318961 -5.1830273e-08 0)
(0.00054334391 -5.5137664e-08 0)
(0.00054353642 -5.8104365e-08 0)
(0.00054376405 -6.0748535e-08 0)
(0.00054402385 -6.3087664e-08 0)
(0.00054431304 -6.5138586e-08 0)
(0.00054462895 -6.6917499e-08 0)
(0.00054496906 -6.8439977e-08 0)
(0.00054533099 -6.9720989e-08 0)
(0.00054571246 -7.077491e-08 0)
(0.00054611133 -7.1615539e-08 0)
(0.00054652557 -7.225612e-08 0)
(0.00054695326 -7.2709348e-08 0)
(0.0005473926 -7.2987392e-08 0)
(0.00054784188 -7.3101907e-08 0)
(0.00054829949 -7.3064052e-08 0)
(0.00054876393 -7.2884502e-08 0)
(0.00054923379 -7.2573466e-08 0)
(0.00054970773 -7.2140698e-08 0)
(0.00055018451 -7.1595517e-08 0)
(0.00055066297 -7.0946813e-08 0)
(0.00055114204 -7.0203072e-08 0)
(0.00055162069 -6.9372376e-08 0)
(0.000552098 -6.8462428e-08 0)
(0.0005525731 -6.7480557e-08 0)
(0.00055304518 -6.6433736e-08 0)
(0.00055351351 -6.5328586e-08 0)
(0.00055397741 -6.41714e-08 0)
(0.00055443625 -6.2968141e-08 0)
(0.00055488946 -6.1724463e-08 0)
(0.00055533654 -6.0445718e-08 0)
(0.000555777 -5.9136967e-08 0)
(0.00055621044 -5.780299e-08 0)
(0.00055663647 -5.6448299e-08 0)
(0.00055705476 -5.5077142e-08 0)
(0.00055746502 -5.3693521e-08 0)
(0.00055786699 -5.2301195e-08 0)
(0.00055826044 -5.0903694e-08 0)
(0.0005586452 -4.9504324e-08 0)
(0.00055902111 -4.810618e-08 0)
(0.00055938804 -4.6712153e-08 0)
(0.0005597459 -4.5324939e-08 0)
(0.00056009462 -4.3947046e-08 0)
(0.00056043415 -4.2580804e-08 0)
(0.00056076448 -4.1228372e-08 0)
(0.0005610856 -3.9891747e-08 0)
(0.00056139754 -3.8572769e-08 0)
(0.00056170034 -3.7273132e-08 0)
(0.00056199406 -3.5994388e-08 0)
(0.00056227877 -3.473796e-08 0)
(0.00056255457 -3.3505141e-08 0)
(0.00056282156 -3.2297109e-08 0)
(0.00056307987 -3.111493e-08 0)
(0.00056332961 -2.9959565e-08 0)
(0.00056357095 -2.8831879e-08 0)
(0.00056380402 -2.7732647e-08 0)
(0.000564029 -2.6662559e-08 0)
(0.00056424605 -2.5622231e-08 0)
(0.00056445536 -2.461221e-08 0)
(0.00056465712 -2.363298e-08 0)
(0.00056485151 -2.2684973e-08 0)
(0.00056503875 -2.1768576e-08 0)
(0.00056521904 -2.0884139e-08 0)
(0.00056539259 -2.0031988e-08 0)
(0.00056555963 -1.9212434e-08 0)
(0.00056572037 -1.8425789e-08 0)
(0.00056587504 -1.7672386e-08 0)
(0.00056602389 -1.6952598e-08 0)
(0.00056616715 -1.6266877e-08 0)
(0.00056630507 -1.5615799e-08 0)
(0.00056643791 -1.5000134e-08 0)
(0.00056656594 -1.4420951e-08 0)
(0.00056668943 -1.3879791e-08 0)
(0.00056680868 -1.3378925e-08 0)
(0.00056692401 -1.2921791e-08 0)
(0.00056703577 -1.2513701e-08 0)
(0.00056714436 -1.2163037e-08 0)
(0.00056725026 -1.188328e-08 0)
(0.00056735403 -1.1696544e-08 0)
(0.00056745639 -1.1639851e-08 0)
(0.00056755829 -1.1776456e-08 0)
(0.00056766106 -1.2215864e-08 0)
(0.00056776656 -1.3150285e-08 0)
(0.00056787765 -1.4937667e-08 0)
(0.00056799858 -1.8264574e-08 0)
(0.00056813487 -2.4064138e-08 0)
(0.00056829617 -3.2979351e-08 0)
(0.00056852368 -5.3241738e-08 0)
(0.00056883852 -1.1153947e-07 0)
(-3.120621e-05 9.9443401e-05 0)
(-0.00027895898 0.00025775243 0)
(-0.00064053182 0.00032844772 0)
(-0.0010209128 0.00031879211 0)
(-0.0013445305 0.00025992144 0)
(-0.0015761127 0.00017843653 0)
(-0.0017044774 9.2245525e-05 0)
(-0.0017331079 1.1838168e-05 0)
(-0.0016735487 -5.7532338e-05 0)
(-0.0015408476 -0.00011392618 0)
(-0.0013507344 -0.00015732028 0)
(-0.0011180731 -0.00018872362 0)
(-0.00085609106 -0.00020962394 0)
(-0.00057609664 -0.00022165783 0)
(-0.00028746711 -0.00022642309 0)
(2.2152374e-06 -0.00022538517 0)
(0.00028696261 -0.00021983342 0)
(0.0005621613 -0.00021087659 0)
(0.00082436569 -0.00019944752 0)
(0.0010711048 -0.0001863182 0)
(0.0013007136 -0.00017211642 0)
(0.0015121829 -0.0001573475 0)
(0.0017050338 -0.00014241299 0)
(0.0018792107 -0.00012762697 0)
(0.0020349913 -0.00011323043 0)
(0.0021729107 -9.9403472e-05 0)
(0.0022936977 -8.6275883e-05 0)
(0.0023982218 -7.393609e-05 0)
(0.002487449 -6.2438835e-05 0)
(0.0025624056 -5.1811704e-05 0)
(0.0026241488 -4.2060694e-05 0)
(0.0026737422 -3.3174921e-05 0)
(0.0027122378 -2.5130604e-05 0)
(0.0027406607 -1.7894389e-05 0)
(0.002759998 -1.1426121e-05 0)
(0.0027711913 -5.6811126e-06 0)
(0.0027751305 -6.1197599e-07 0)
(0.0027726506 3.8299498e-06 0)
(0.0027645298 7.6935962e-06 0)
(0.0027514886 1.1027066e-05 0)
(0.0027341906 1.3876948e-05 0)
(0.0027132439 1.628782e-05 0)
(0.0026892033 1.8301916e-05 0)
(0.0026625725 1.995892e-05 0)
(0.002633807 2.1295862e-05 0)
(0.002603317 2.2347084e-05 0)
(0.0025714706 2.3144267e-05 0)
(0.0025385965 2.3716499e-05 0)
(0.0025049872 2.4090378e-05 0)
(0.0024709018 2.429013e-05 0)
(0.0024365691 2.4337745e-05 0)
(0.0024021899 2.425312e-05 0)
(0.0023679393 2.4054205e-05 0)
(0.0023339699 2.3757146e-05 0)
(0.002300413 2.3376433e-05 0)
(0.0022673815 2.292503e-05 0)
(0.0022349711 2.2414511e-05 0)
(0.0022032624 2.1855184e-05 0)
(0.0021723225 2.1256203e-05 0)
(0.0021422062 2.062568e-05 0)
(0.0021129575 1.9970783e-05 0)
(0.0020846111 1.9297829e-05 0)
(0.0020571927 1.8612369e-05 0)
(0.0020307209 1.7919265e-05 0)
(0.0020052073 1.7222762e-05 0)
(0.0019806581 1.6526549e-05 0)
(0.0019570741 1.5833822e-05 0)
(0.0019344517 1.5147335e-05 0)
(0.0019127836 1.4469445e-05 0)
(0.0018920591 1.3802161e-05 0)
(0.0018722647 1.3147177e-05 0)
(0.0018533844 1.2505911e-05 0)
(0.0018354002 1.1879535e-05 0)
(0.0018182925 1.1269002e-05 0)
(0.0018020401 1.0675074e-05 0)
(0.0017866209 1.0098343e-05 0)
(0.0017720116 9.5392511e-06 0)
(0.0017581885 8.9981087e-06 0)
(0.0017451272 8.4751118e-06 0)
(0.0017328031 7.9703554e-06 0)
(0.0017211913 7.4838471e-06 0)
(0.0017102668 7.0155178e-06 0)
(0.0017000047 6.5652329e-06 0)
(0.0016903802 6.1328006e-06 0)
(0.0016813687 5.7179807e-06 0)
(0.001672946 5.3204914e-06 0)
(0.0016650881 4.9400159e-06 0)
(0.0016577714 4.5762082e-06 0)
(0.0016509729 4.2286978e-06 0)
(0.0016446698 3.8970946e-06 0)
(0.0016388401 3.5809927e-06 0)
(0.0016334621 3.2799739e-06 0)
(0.0016285149 2.9936108e-06 0)
(0.0016239779 2.7214696e-06 0)
(0.0016198313 2.4631125e-06 0)
(0.0016160558 2.2180995e-06 0)
(0.0016126327 1.9859909e-06 0)
(0.0016095439 1.7663484e-06 0)
(0.0016067717 1.5587366e-06 0)
(0.0016042995 1.3627244e-06 0)
(0.0016021107 1.1778857e-06 0)
(0.0016001897 1.0038007e-06 0)
(0.0015985213 8.4005662e-07 0)
(0.0015970908 6.8624799e-07 0)
(0.0015958843 5.4197756e-07 0)
(0.0015948883 4.0685658e-07 0)
(0.0015940897 2.8050522e-07 0)
(0.0015934762 1.6255284e-07 0)
(0.0015930358 5.2638216e-08 0)
(0.0015927571 -4.9590274e-08 0)
(0.0015926291 -1.4447464e-07 0)
(0.0015926415 -2.3234713e-07 0)
(0.0015927843 -3.1353015e-07 0)
(0.0015930478 -3.8833643e-07 0)
(0.001593423 -4.5706903e-07 0)
(0.0015939012 -5.2002137e-07 0)
(0.0015944741 -5.7747732e-07 0)
(0.0015951338 -6.2971132e-07 0)
(0.001595873 -6.7698855e-07 0)
(0.0015966843 -7.1956504e-07 0)
(0.0015975612 -7.5768787e-07 0)
(0.0015984971 -7.915953e-07 0)
(0.0015994861 -8.2151694e-07 0)
(0.0016005222 -8.47674e-07 0)
(0.0016016002 -8.7027941e-07 0)
(0.0016027149 -8.8953801e-07 0)
(0.0016038613 -9.0564682e-07 0)
(0.0016050351 -9.1879514e-07 0)
(0.0016062317 -9.291648e-07 0)
(0.0016074472 -9.3693037e-07 0)
(0.0016086779 -9.4225929e-07 0)
(0.00160992 -9.4531215e-07 0)
(0.0016111704 -9.462428e-07 0)
(0.0016124258 -9.451986e-07 0)
(0.0016136834 -9.4232057e-07 0)
(0.0016149404 -9.3774359e-07 0)
(0.0016161945 -9.3159658e-07 0)
(0.0016174431 -9.2400267e-07 0)
(0.0016186842 -9.1507938e-07 0)
(0.0016199158 -9.0493882e-07 0)
(0.001621136 -8.9368778e-07 0)
(0.0016223433 -8.8142801e-07 0)
(0.001623536 -8.6825627e-07 0)
(0.0016247127 -8.5426457e-07 0)
(0.0016258723 -8.395403e-07 0)
(0.0016270135 -8.2416638e-07 0)
(0.0016281355 -8.0822142e-07 0)
(0.0016292371 -7.9177986e-07 0)
(0.0016303178 -7.7491214e-07 0)
(0.0016313768 -7.5768482e-07 0)
(0.0016324134 -7.4016073e-07 0)
(0.0016334273 -7.2239912e-07 0)
(0.0016344179 -7.0445578e-07 0)
(0.001635385 -6.8638318e-07 0)
(0.0016363283 -6.6823061e-07 0)
(0.0016372475 -6.500443e-07 0)
(0.0016381427 -6.3186754e-07 0)
(0.0016390136 -6.1374084e-07 0)
(0.0016398604 -5.9570202e-07 0)
(0.0016406831 -5.7778634e-07 0)
(0.0016414818 -5.6002662e-07 0)
(0.0016422566 -5.4245337e-07 0)
(0.0016430078 -5.250949e-07 0)
(0.0016437357 -5.0797744e-07 0)
(0.0016444404 -4.9112525e-07 0)
(0.0016451223 -4.7456075e-07 0)
(0.0016457818 -4.5830461e-07 0)
(0.0016464192 -4.4237591e-07 0)
(0.001647035 -4.2679224e-07 0)
(0.0016476297 -4.115698e-07 0)
(0.0016482036 -3.9672358e-07 0)
(0.0016487573 -3.8226746e-07 0)
(0.0016492913 -3.6821439e-07 0)
(0.0016498061 -3.5457654e-07 0)
(0.0016503023 -3.413655e-07 0)
(0.0016507804 -3.2859249e-07 0)
(0.001651241 -3.1626866e-07 0)
(0.0016516848 -3.0440542e-07 0)
(0.0016521123 -2.9301489e-07 0)
(0.0016525243 -2.8211046e-07 0)
(0.0016529213 -2.7170766e-07 0)
(0.0016533041 -2.6182521e-07 0)
(0.0016536733 -2.5248666e-07 0)
(0.0016540298 -2.4372272e-07 0)
(0.0016543744 -2.3557462e-07 0)
(0.0016547079 -2.2809915e-07 0)
(0.0016550312 -2.2137633e-07 0)
(0.0016553456 -2.1552083e-07 0)
(0.0016556522 -2.1069974e-07 0)
(0.0016559525 -2.0715984e-07 0)
(0.0016562484 -2.0527035e-07 0)
(0.0016565422 -2.0558992e-07 0)
(0.0016568368 -2.0897207e-07 0)
(0.0016571362 -2.167306e-07 0)
(0.0016574458 -2.3089085e-07 0)
(0.0016577723 -2.5451824e-07 0)
(0.0016581233 -2.9204053e-07 0)
(0.0016585092 -3.4972654e-07 0)
(0.0016589774 -4.3556096e-07 0)
(0.0016595314 -5.3767903e-07 0)
(-5.1030625e-05 0.000283823 0)
(-0.00041146566 0.00063817392 0)
(-0.00088909936 0.00076907056 0)
(-0.0013600138 0.00072316089 0)
(-0.0017341823 0.0005711061 0)
(-0.0019757833 0.0003715203 0)
(-0.0020778017 0.00016418571 0)
(-0.0020497491 -2.7464166e-05 0)
(-0.0019096018 -0.00019177523 0)
(-0.0016784133 -0.0003246007 0)
(-0.0013771837 -0.00042620294 0)
(-0.0010251841 -0.00049918436 0)
(-0.00063923117 -0.00054719557 0)
(-0.00023351856 -0.00057417701 0)
(0.00018028817 -0.00058392499 0)
(0.00059277598 -0.00057990249 0)
(0.00099653832 -0.00056513832 0)
(0.0013858549 -0.00054222593 0)
(0.0017564343 -0.00051334434 0)
(0.0021051761 -0.0004802993 0)
(0.002429967 -0.00044457209 0)
(0.0027295052 -0.00040736523 0)
(0.0030031519 -0.00036964393 0)
(0.0032508044 -0.0003321727 0)
(0.003472789 -0.00029554707 0)
(0.0036697694 -0.00026022077 0)
(0.0038426697 -0.00022652907 0)
(0.0039926088 -0.00019470876 0)
(0.0041208448 -0.00016491532 0)
(0.004228729 -0.00013723768 0)
(0.0043176669 -0.00011171091 0)
(0.0043890868 -8.8327116e-05 0)
(0.004444414 -6.7044756e-05 0)
(0.0044850497 -4.7796539e-05 0)
(0.0045123555 -3.0496116e-05 0)
(0.0045276404 -1.5043646e-05 0)
(0.0045321523 -1.3303923e-06 0)
(0.0045270717 1.0757612e-05 0)
(0.0045135069 2.1336876e-05 0)
(0.0044924927 3.0523594e-05 0)
(0.0044649893 3.8431719e-05 0)
(0.0044318833 4.5171522e-05 0)
(0.0043939894 5.084858e-05 0)
(0.004352053 5.5563066e-05 0)
(0.004306753 5.9409309e-05 0)
(0.0042587053 6.2475551e-05 0)
(0.0042084663 6.4843871e-05 0)
(0.0041565364 6.6590228e-05 0)
(0.0041033645 6.7784599e-05 0)
(0.0040493508 6.849119e-05 0)
(0.0039948511 6.8768696e-05 0)
(0.0039401801 6.8670588e-05 0)
(0.0038856147 6.8245428e-05 0)
(0.0038313976 6.7537192e-05 0)
(0.00377774 6.6585589e-05 0)
(0.0037248243 6.542638e-05 0)
(0.0036728075 6.4091691e-05 0)
(0.0036218227 6.2610308e-05 0)
(0.0035719824 6.1007957e-05 0)
(0.0035233797 5.9307577e-05 0)
(0.0034760909 5.7529564e-05 0)
(0.0034301772 5.5692007e-05 0)
(0.0033856859 5.3810903e-05 0)
(0.0033426525 5.1900358e-05 0)
(0.0033011017 4.9972769e-05 0)
(0.0032610487 4.8038993e-05 0)
(0.0032225002 4.6108504e-05 0)
(0.0031854559 4.4189528e-05 0)
(0.0031499088 4.2289177e-05 0)
(0.0031158465 4.0413562e-05 0)
(0.0030832517 3.8567898e-05 0)
(0.0030521029 3.6756603e-05 0)
(0.0030223752 3.4983383e-05 0)
(0.0029940404 3.3251308e-05 0)
(0.0029670682 3.1562885e-05 0)
(0.0029414259 2.9920121e-05 0)
(0.0029170793 2.832458e-05 0)
(0.0028939926 2.6777434e-05 0)
(0.0028721293 2.5279509e-05 0)
(0.0028514518 2.3831329e-05 0)
(0.0028319223 2.2433148e-05 0)
(0.0028135025 2.1084989e-05 0)
(0.0027961539 1.9786672e-05 0)
(0.0027798382 1.8537837e-05 0)
(0.0027645173 1.7337974e-05 0)
(0.0027501533 1.6186441e-05 0)
(0.0027367087 1.5082482e-05 0)
(0.0027241466 1.4025246e-05 0)
(0.0027124308 1.3013803e-05 0)
(0.0027015255 1.2047154e-05 0)
(0.0026913959 1.1124248e-05 0)
(0.0026820076 1.0243988e-05 0)
(0.0026733275 9.4052424e-06 0)
(0.0026653228 8.6068544e-06 0)
(0.0026579621 7.8476478e-06 0)
(0.0026512144 7.1264342e-06 0)
(0.00264505 6.4420193e-06 0)
(0.0026394397 5.7932069e-06 0)
(0.0026343556 5.1788044e-06 0)
(0.0026297705 4.5976261e-06 0)
(0.0026256581 4.0484966e-06 0)
(0.0026219931 3.5302541e-06 0)
(0.0026187509 3.0417525e-06 0)
(0.002615908 2.5818637e-06 0)
(0.0026134418 2.1494798e-06 0)
(0.0026113302 1.7435138e-06 0)
(0.0026095523 1.3629019e-06 0)
(0.002608088 1.0066035e-06 0)
(0.0026069177 6.7360292e-07 0)
(0.002606023 3.6290958e-07 0)
(0.002605386 7.3558574e-08 0)
(0.0026049896 -1.953889e-07 0)
(0.0026048175 -4.4484566e-07 0)
(0.0026048541 -6.7569791e-07 0)
(0.0026050843 -8.8880568e-07 0)
(0.0026054941 -1.0850029e-06 0)
(0.0026060697 -1.2650973e-06 0)
(0.0026067982 -1.4298709e-06 0)
(0.0026076673 -1.5800801e-06 0)
(0.0026086651 -1.7164563e-06 0)
(0.0026097806 -1.8397057e-06 0)
(0.002611003 -1.9505105e-06 0)
(0.0026123223 -2.0495287e-06 0)
(0.002613729 -2.1373949e-06 0)
(0.0026152139 -2.2147207e-06 0)
(0.0026167685 -2.282095e-06 0)
(0.0026183847 -2.3400848e-06 0)
(0.0026200548 -2.3892357e-06 0)
(0.0026217716 -2.4300721e-06 0)
(0.0026235283 -2.463098e-06 0)
(0.0026253184 -2.4887975e-06 0)
(0.002627136 -2.5076352e-06 0)
(0.0026289754 -2.5200568e-06 0)
(0.0026308312 -2.5264897e-06 0)
(0.0026326986 -2.5273433e-06 0)
(0.0026345729 -2.5230096e-06 0)
(0.0026364498 -2.5138637e-06 0)
(0.0026383252 -2.5002643e-06 0)
(0.0026401955 -2.4825543e-06 0)
(0.0026420572 -2.4610609e-06 0)
(0.0026439071 -2.4360965e-06 0)
(0.0026457423 -2.4079588e-06 0)
(0.00264756 -2.3769317e-06 0)
(0.0026493579 -2.3432852e-06 0)
(0.0026511335 -2.3072762e-06 0)
(0.002652885 -2.2691488e-06 0)
(0.0026546105 -2.2291348e-06 0)
(0.0026563082 -2.1874542e-06 0)
(0.0026579768 -2.1443151e-06 0)
(0.0026596148 -2.0999149e-06 0)
(0.0026612213 -2.0544402e-06 0)
(0.0026627951 -2.008067e-06 0)
(0.0026643353 -1.9609617e-06 0)
(0.0026658414 -1.913281e-06 0)
(0.0026673127 -1.8651723e-06 0)
(0.0026687487 -1.8167745e-06 0)
(0.0026701491 -1.7682175e-06 0)
(0.0026715136 -1.7196237e-06 0)
(0.002672842 -1.6711072e-06 0)
(0.0026741344 -1.622775e-06 0)
(0.0026753907 -1.574727e-06 0)
(0.0026766111 -1.5270561e-06 0)
(0.0026777958 -1.4798492e-06 0)
(0.002678945 -1.4331867e-06 0)
(0.0026800591 -1.3871435e-06 0)
(0.0026811384 -1.3417891e-06 0)
(0.0026821835 -1.2971878e-06 0)
(0.0026831948 -1.2533992e-06 0)
(0.0026841729 -1.2104786e-06 0)
(0.0026851183 -1.168477e-06 0)
(0.0026860319 -1.1274421e-06 0)
(0.0026869142 -1.0874179e-06 0)
(0.0026877659 -1.0484459e-06 0)
(0.002688588 -1.0105652e-06 0)
(0.002689381 -9.7381283e-07 0)
(0.002690146 -9.3822499e-07 0)
(0.0026908837 -9.0383731e-07 0)
(0.0026915951 -8.7068604e-07 0)
(0.002692281 -8.3880925e-07 0)
(0.0026929425 -8.0824847e-07 0)
(0.0026935806 -7.7905086e-07 0)
(0.0026941962 -7.5127223e-07 0)
(0.0026947905 -7.2498118e-07 0)
(0.0026953647 -7.00265e-07 0)
(0.0026959199 -6.7723808e-07 0)
(0.0026964575 -6.5605393e-07 0)
(0.002696979 -6.369226e-07 0)
(0.0026974859 -6.2013597e-07 0)
(0.00269798 -6.0610434e-07 0)
(0.0026984636 -5.9540943e-07 0)
(0.0026989391 -5.8888033e-07 0)
(0.0026994095 -5.8770058e-07 0)
(0.0026998786 -5.9355403e-07 0)
(0.0027003509 -6.0881098e-07 0)
(0.0027008319 -6.3673077e-07 0)
(0.0027013279 -6.8155545e-07 0)
(0.0027018437 -7.4815086e-07 0)
(0.0027023836 -8.4084095e-07 0)
(0.0027029889 -9.5978254e-07 0)
(0.0027036713 -1.0779631e-06 0)
(-6.6457779e-05 0.00053184955 0)
(-0.00049684495 0.0011098082 0)
(-0.0010149503 0.0012768834 0)
(-0.0014788387 0.0011539621 0)
(-0.0017997583 0.00086808507 0)
(-0.001955222 0.0005165395 0)
(-0.0019517239 0.0001625696 0)
(-0.0018092824 -0.0001581257 0)
(-0.001552979 -0.00042891187 0)
(-0.0012082471 -0.0006448927 0)
(-0.00079845537 -0.0008078795 0)
(-0.00034392971 -0.00092306366 0)
(0.00013825005 -0.00099698308 0)
(0.00063401018 -0.0010364055 0)
(0.0011320043 -0.0010476865 0)
(0.0016231924 -0.0010365155 0)
(0.0021004883 -0.0010078334 0)
(0.0025584375 -0.00096584061 0)
(0.0029929509 -0.0009140612 0)
(0.0034010751 -0.00085542087 0)
(0.0037808014 -0.00079232783 0)
(0.0041309052 -0.00072674774 0)
(0.0044508098 -0.00066026999 0)
(0.0047404704 -0.00059416509 0)
(0.0050002752 -0.0005294338 0)
(0.0052309602 -0.00046684905 0)
(0.0054335354 -0.00040699185 0)
(0.0056092211 -0.00035028212 0)
(0.0057593942 -0.00029700532 0)
(0.0058855403 -0.00024733554 0)
(0.0059892149 -0.00020135548 0)
(0.0060720096 -0.00015907385 0)
(0.006135524 -0.00012044033 0)
(0.006181343 -8.535852e-05 0)
(0.0062110185 -5.369693e-05 0)
(0.0062260542 -2.5298353e-05 0)
(0.0062278948 1.2318649e-08 0)
(0.0062179176 2.2421954e-05 0)
(0.0061974258 4.2124104e-05 0)
(0.0061676451 5.9314046e-05 0)
(0.0061297221 7.4185254e-05 0)
(0.0060847236 8.6926718e-05 0)
(0.0060336371 9.7720938e-05 0)
(0.0059773731 0.00010674248 0)
(0.0059167667 0.00011415697 0)
(0.0058525814 0.00012012047 0)
(0.0057855117 0.00012477913 0)
(0.0057161871 0.00012826909 0)
(0.0056451758 0.00013071655 0)
(0.0055729884 0.00013223803 0)
(0.0055000823 0.00013294065 0)
(0.0054268646 0.00013292257 0)
(0.0053536966 0.00013227344 0)
(0.0052808971 0.00013107485 0)
(0.0052087459 0.00012940089 0)
(0.0051374868 0.00012731865 0)
(0.0050673311 0.00012488867 0)
(0.0049984602 0.0001221655 0)
(0.0049310288 0.00011919812 0)
(0.0048651666 0.00011603043 0)
(0.0048009816 0.00011270166 0)
(0.0047385616 0.00010924677 0)
(0.0046779766 0.00010569683 0)
(0.0046192807 0.00010207939 0)
(0.0045625132 9.8418784e-05 0)
(0.0045077012 9.4736441e-05 0)
(0.00445486 9.1051162e-05 0)
(0.0044039951 8.7379374e-05 0)
(0.0043551033 8.3735364e-05 0)
(0.0043081732 8.0131496e-05 0)
(0.0042631871 7.6578404e-05 0)
(0.0042201212 7.308517e-05 0)
(0.0041789466 6.9659485e-05 0)
(0.0041396301 6.6307799e-05 0)
(0.004102135 6.3035448e-05 0)
(0.0040664212 5.9846783e-05 0)
(0.0040324461 5.6745271e-05 0)
(0.0040001652 5.3733599e-05 0)
(0.0039695322 5.0813761e-05 0)
(0.0039404994 4.7987137e-05 0)
(0.0039130183 4.5254569e-05 0)
(0.0038870398 4.2616421e-05 0)
(0.0038625141 4.0072641e-05 0)
(0.0038393916 3.7622814e-05 0)
(0.0038176227 3.5266206e-05 0)
(0.0037971577 3.300181e-05 0)
(0.0037779478 3.0828381e-05 0)
(0.0037599443 2.8744473e-05 0)
(0.0037430995 2.6748465e-05 0)
(0.003727366 2.4838595e-05 0)
(0.0037126978 2.3012977e-05 0)
(0.0036990494 2.1269628e-05 0)
(0.0036863765 1.9606483e-05 0)
(0.0036746357 1.8021416e-05 0)
(0.0036637847 1.6512256e-05 0)
(0.0036537824 1.5076793e-05 0)
(0.0036445886 1.37128e-05 0)
(0.0036361645 1.2418037e-05 0)
(0.0036284724 1.1190262e-05 0)
(0.0036214756 1.0027239e-05 0)
(0.0036151388 8.9267475e-06 0)
(0.0036094277 7.8865839e-06 0)
(0.0036043092 6.9045712e-06 0)
(0.0035997513 5.9785619e-06 0)
(0.0035957233 5.1064419e-06 0)
(0.0035921954 4.2861343e-06 0)
(0.0035891391 3.5156021e-06 0)
(0.0035865269 2.7928505e-06 0)
(0.0035843323 2.1159288e-06 0)
(0.0035825299 1.4829319e-06 0)
(0.0035810955 8.9200197e-07 0)
(0.0035800055 3.4132862e-07 0)
(0.0035792376 -1.708497e-07 0)
(0.0035787704 -6.4624614e-07 0)
(0.0035785833 -1.0865246e-06 0)
(0.0035786567 -1.4932999e-06 0)
(0.0035789719 -1.8681383e-06 0)
(0.0035795109 -2.2125576e-06 0)
(0.0035802567 -2.5280271e-06 0)
(0.0035811931 -2.8159689e-06 0)
(0.0035823044 -3.0777578e-06 0)
(0.003583576 -3.3147225e-06 0)
(0.0035849939 -3.5281461e-06 0)
(0.0035865446 -3.719267e-06 0)
(0.0035882157 -3.8892795e-06 0)
(0.003589995 -4.0393352e-06 0)
(0.0035918713 -4.1705433e-06 0)
(0.0035938337 -4.2839719e-06 0)
(0.0035958722 -4.3806491e-06 0)
(0.0035979771 -4.4615632e-06 0)
(0.0036001394 -4.5276646e-06 0)
(0.0036023506 -4.5798661e-06 0)
(0.0036046026 -4.6190443e-06 0)
(0.0036068879 -4.64604e-06 0)
(0.0036091996 -4.6616598e-06 0)
(0.0036115308 -4.6666765e-06 0)
(0.0036138756 -4.6618302e-06 0)
(0.003616228 -4.6478296e-06 0)
(0.0036185827 -4.625352e-06 0)
(0.0036209348 -4.5950453e-06 0)
(0.0036232795 -4.557528e-06 0)
(0.0036256126 -4.5133905e-06 0)
(0.0036279301 -4.4631957e-06 0)
(0.0036302284 -4.4074803e-06 0)
(0.0036325041 -4.3467551e-06 0)
(0.0036347542 -4.2815062e-06 0)
(0.0036369759 -4.2121955e-06 0)
(0.0036391666 -4.1392617e-06 0)
(0.0036413242 -4.0631212e-06 0)
(0.0036434465 -3.9841684e-06 0)
(0.0036455317 -3.9027771e-06 0)
(0.0036475783 -3.8193007e-06 0)
(0.0036495849 -3.734073e-06 0)
(0.0036515501 -3.6474095e-06 0)
(0.0036534731 -3.5596073e-06 0)
(0.0036553529 -3.4709463e-06 0)
(0.0036571889 -3.3816898e-06 0)
(0.0036589805 -3.2920851e-06 0)
(0.0036607273 -3.2023642e-06 0)
(0.003662429 -3.1127446e-06 0)
(0.0036640854 -3.0234297e-06 0)
(0.0036656967 -2.9346096e-06 0)
(0.0036672627 -2.8464618e-06 0)
(0.0036687838 -2.7591518e-06 0)
(0.0036702603 -2.6728336e-06 0)
(0.0036716924 -2.5876506e-06 0)
(0.0036730807 -2.5037358e-06 0)
(0.0036744256 -2.4212132e-06 0)
(0.0036757279 -2.3401975e-06 0)
(0.0036769882 -2.2607957e-06 0)
(0.0036782072 -2.1831072e-06 0)
(0.0036793858 -2.1072249e-06 0)
(0.0036805248 -2.0332358e-06 0)
(0.0036816251 -1.961222e-06 0)
(0.0036826877 -1.8912621e-06 0)
(0.0036837137 -1.8234317e-06 0)
(0.003684704 -1.7578056e-06 0)
(0.0036856598 -1.6944588e-06 0)
(0.0036865823 -1.6334699e-06 0)
(0.0036874726 -1.5749228e-06 0)
(0.0036883321 -1.5189117e-06 0)
(0.0036891619 -1.4655454e-06 0)
(0.0036899635 -1.4149555e-06 0)
(0.0036907384 -1.3673052e-06 0)
(0.003691488 -1.322804e-06 0)
(0.0036922141 -1.2817263e-06 0)
(0.0036929184 -1.2444383e-06 0)
(0.0036936028 -1.2114351e-06 0)
(0.0036942695 -1.1833925e-06 0)
(0.003694921 -1.1612361e-06 0)
(0.0036955601 -1.1462336e-06 0)
(0.00369619 -1.1401103e-06 0)
(0.0036968144 -1.1451806e-06 0)
(0.0036974373 -1.1644654e-06 0)
(0.0036980634 -1.2017143e-06 0)
(0.003698697 -1.2611248e-06 0)
(0.0036993401 -1.3462929e-06 0)
(0.0036999919 -1.4577854e-06 0)
(0.0037006922 -1.5879601e-06 0)
(0.0037014707 -1.7034028e-06 0)
(-8.2919271e-05 0.00082086453 0)
(-0.00054833322 0.0016091422 0)
(-0.0010267528 0.0017581724 0)
(-0.0013786949 0.0015033034 0)
(-0.0015382358 0.0010451966 0)
(-0.0015113591 0.00052230808 0)
(-0.0013263887 1.7498707e-05 0)
(-0.0010165623 -0.00042661762 0)
(-0.00061333092 -0.00079289854 0)
(-0.00014383264 -0.0010789267 0)
(0.00036962963 -0.001290079 0)
(0.00090914695 -0.0014352541 0)
(0.0014605654 -0.0015243641 0)
(0.0020127117 -0.0015670746 0)
(0.0025568141 -0.0015721909 0)
(0.0030860109 -0.0015474316 0)
(0.0035949806 -0.0014994127 0)
(0.0040796571 -0.0014337216 0)
(0.0045370112 -0.0013550332 0)
(0.0049648796 -0.0012672315 0)
(0.0053618276 -0.0011735242 0)
(0.0057270353 -0.0010765436 0)
(0.0060602016 -0.00097843305 0)
(0.0063614618 -0.00088092046 0)
(0.006631314 -0.00078538054 0)
(0.0068705557 -0.00069288746 0)
(0.0070802257 -0.00060426005 0)
(0.0072615542 -0.00052010079 0)
(0.0074159172 -0.00044082969 0)
(0.0075447975 -0.00036671385 0)
(0.0076497499 -0.00029789346 0)
(0.0077323713 -0.00023440448 0)
(0.0077942755 -0.00017619849 0)
(0.0078370707 -0.00012316001 0)
(0.0078623427 -7.5121452e-05 0)
(0.007871639 -3.1875893e-05 0)
(0.0078664575 6.8119844e-06 0)
(0.007848237 4.1197762e-05 0)
(0.0078183493 7.1549085e-05 0)
(0.0077780949 9.8138818e-05 0)
(0.0077287002 0.00012123988 0)
(0.0076713151 0.00014112119 0)
(0.007607013 0.00015804459 0)
(0.0075367907 0.00017226243 0)
(0.0074615704 0.00018401586 0)
(0.0073822011 0.0001935337 0)
(0.0072994613 0.00020103161 0)
(0.0072140621 0.00020671179 0)
(0.0071266501 0.0002107628 0)
(0.0070378109 0.00021335977 0)
(0.0069480727 0.00021466463 0)
(0.0068579097 0.00021482659 0)
(0.0067677457 0.00021398263 0)
(0.0066779575 0.00021225814 0)
(0.0065888785 0.00020976755 0)
(0.0065008018 0.00020661497 0)
(0.0064139834 0.00020289486 0)
(0.0063286453 0.00019869272 0)
(0.0062449784 0.00019408573 0)
(0.0061631451 0.00018914337 0)
(0.0060832818 0.00018392802 0)
(0.0060055015 0.00017849556 0)
(0.0059298958 0.00017289591 0)
(0.0058565371 0.00016717349 0)
(0.0057854804 0.00016136777 0)
(0.0057167655 0.00015551367 0)
(0.0056504179 0.00014964198 0)
(0.005586451 0.00014377978 0)
(0.0055248671 0.00013795071 0)
(0.0054656588 0.00013217538 0)
(0.0054088101 0.00012647164 0)
(0.0053542975 0.00012085482 0)
(0.0053020911 0.00011533803 0)
(0.0052521553 0.00010993235 0)
(0.0052044495 0.00010464707 0)
(0.005158929 9.9489841e-05 0)
(0.0051155459 9.4466888e-05 0)
(0.005074249 8.9583136e-05 0)
(0.005034985 8.4842368e-05 0)
(0.0049976986 8.0247345e-05 0)
(0.0049623331 7.5799925e-05 0)
(0.0049288306 7.1501168e-05 0)
(0.0048971327 6.7351433e-05 0)
(0.0048671804 6.3350457e-05 0)
(0.0048389144 5.9497441e-05 0)
(0.0048122757 5.579111e-05 0)
(0.0047872056 5.2229785e-05 0)
(0.0047636455 4.8811431e-05 0)
(0.0047415379 4.5533712e-05 0)
(0.0047208258 4.2394036e-05 0)
(0.0047014531 3.9389594e-05 0)
(0.0046833646 3.6517397e-05 0)
(0.0046665064 3.377431e-05 0)
(0.0046508256 3.1157078e-05 0)
(0.0046362704 2.8662353e-05 0)
(0.0046227905 2.6286719e-05 0)
(0.0046103368 2.4026711e-05 0)
(0.0045988614 2.1878831e-05 0)
(0.0045883179 1.9839567e-05 0)
(0.0045786611 1.7905406e-05 0)
(0.0045698474 1.6072848e-05 0)
(0.0045618344 1.4338411e-05 0)
(0.0045545811 1.2698649e-05 0)
(0.0045480478 1.1150153e-05 0)
(0.0045421965 9.6895634e-06 0)
(0.00453699 8.313571e-06 0)
(0.0045323928 7.0189263e-06 0)
(0.0045283706 5.8024416e-06 0)
(0.0045248905 4.6609956e-06 0)
(0.0045219206 3.5915357e-06 0)
(0.0045194304 2.5910806e-06 0)
(0.0045173907 1.6567222e-06 0)
(0.0045157733 7.8562686e-07 0)
(0.0045145513 -2.4963419e-08 0)
(0.0045136988 -7.7773073e-07 0)
(0.0045131912 -1.4752809e-06 0)
(0.0045130047 -2.1201433e-06 0)
(0.0045131167 -2.7147716e-06 0)
(0.0045135057 -3.2615437e-06 0)