/*--------------------------------*- C++ -*----------------------------------*\
| =========                 |                                                 |
| \\      /  F ield         | OpenFOAM: The Open Source CFD Toolbox           |
|  \\    /   O peration     | Version:  2406                                  |
|   \\  /    A nd           | Website:  www.openfoam.com                      |
|    \\/     M anipulation  |                                                 |
\*---------------------------------------------------------------------------*/
FoamFile
{
    version     2.0;
    format      ascii;
    arch        "LSB;label=32;scalar=64";
    class       volScalarField;
    location    "417";
    object      p;
}
// * * * * * * * * * * * * * * * * * * * * * * * * * * * * * * * * * * * * * //

dimensions      [0 2 -2 0 0 0 0];

internalField   nonuniform List<scalar> 
5600
(
-0.014186392
-0.012742882
-0.010015109
-0.0062533367
-0.0019015189
0.0024593797
0.0062958856
0.0093299002
0.011525559
0.012961255
0.013778225
0.014137544
0.014172288
0.013985294
0.013653958
0.013234751
0.012767747
0.012280745
0.011792568
0.01131554
0.010857476
0.010422994
0.010014356
0.0096322748
0.0092764854
0.0089461214
0.008639958
0.0083565793
0.0080944883
0.0078521762
0.0076281665
0.0074210415
0.0072294568
0.0070521494
0.0068879402
0.0067357335
0.0065945151
0.0064633483
0.0063413703
0.0062277875
0.0061218712
0.0060229527
0.0059304192
0.0058437095
0.0057623101
0.0056857512
0.0056136035
0.0055454748
0.0054810068
0.0054198724
0.0053617731
0.0053064368
0.005253615
0.0052030814
0.0051546296
0.0051080717
0.0050632363
0.0050199674
0.004978123
0.0049375736
0.0048982015
0.0048598995
0.00482257
0.0047861242
0.0047504811
0.0047155672
0.0046813154
0.0046476648
0.0046145596
0.0045819492
0.0045497875
0.0045180322
0.004486645
0.0044555906
0.004424837
0.0043943548
0.004364117
0.004334099
0.004304278
0.0042746332
0.0042451454
0.0042157967
0.0041865708
0.0041574524
0.0041284274
0.0040994825
0.0040706054
0.0040417846
0.0040130094
0.0039842693
0.003955555
0.0039268571
0.0038981672
0.0038694768
0.0038407782
0.0038120638
0.0037833263
0.0037545589
0.0037257548
0.0036969075
0.0036680107
0.0036390584
0.0036100447
0.0035809637
0.0035518099
0.0035225777
0.003493262
0.0034638574
0.0034343589
0.0034047614
0.0033750602
0.0033452503
0.0033153273
0.0032852864
0.0032551232
0.0032248333
0.0031944125
0.0031638566
0.0031331614
0.003102323
0.0030713375
0.003040201
0.0030089099
0.0029774606
0.0029458495
0.0029140733
0.0028821285
0.0028500121
0.0028177208
0.0027852518
0.002752602
0.0027197687
0.0026867492
0.0026535409
0.0026201412
0.0025865479
0.0025527587
0.0025187714
0.0024845839
0.0024501944
0.0024156009
0.0023808018
0.0023457955
0.0023105805
0.0022751554
0.002239519
0.00220367
0.0021676076
0.0021313307
0.0020948386
0.0020581307
0.0020212063
0.001984065
0.0019467065
0.0019091307
0.0018713375
0.0018333269
0.0017950991
0.0017566545
0.0017179936
0.0016791169
0.0016400252
0.0016007193
0.0015612003
0.0015214693
0.0014815276
0.0014413768
0.0014010185
0.0013604544
0.0013196866
0.0012787171
0.0012375484
0.0011961828
0.0011546232
0.0011128724
0.0010709336
0.0010288102
0.00098650557
0.00094402367
0.00090136854
0.0008585445
0.00081555613
0.00077240832
0.00072910623
0.00068565535
0.00064206147
0.00059833072
0.00055446955
0.00051048479
0.00046638362
0.00042217358
0.0003778626
0.00033345913
0.00028897165
0.00024441127
0.00019978308
0.00015512263
0.00011036888
6.5819076e-05
2.0235017e-05
-0.016169015
-0.013996117
-0.010976868
-0.0070130472
-0.0024419857
0.0020953959
0.0060341928
0.0091165763
0.011326822
0.012768367
0.013596037
0.013969176
0.014020702
0.013852602
0.013540993
0.013141308
0.012692842
0.01222283
0.011749716
0.011285729
0.010838814
0.010413666
0.01001264
0.0096366347
0.0092856233
0.0089589688
0.0086556481
0.0083744145
0.0081139101
0.007872739
0.0076495151
0.0074428926
0.0072515845
0.0070743736
0.0069101172
0.0067577492
0.0066162791
0.0064847897
0.0063624339
0.0062484311
0.0061420631
0.0060426702
0.0059496466
0.0058624372
0.0057805334
0.0057034695
0.0056308194
0.0055621935
0.0054972358
0.0054356209
0.0053770517
0.005321257
0.0052679892
0.0052170225
0.0051681509
0.0051211866
0.0050759584
0.0050323102
0.0049901
0.004949198
0.0049094863
0.0048708574
0.0048332134
0.0047964651
0.0047605313
0.0047253379
0.0046908175
0.0046569087
0.0046235554
0.0045907067
0.0045583159
0.0045263405
0.0044947416
0.0044634837
0.0044325344
0.0044018639
0.004371445
0.0043412526
0.0043112637
0.0042814571
0.0042518134
0.0042223144
0.0041929435
0.0041636851
0.004134525
0.0041054496
0.0040764464
0.0040475036
0.0040186103
0.003989756
0.003960931
0.0039321259
0.0039033319
0.0038745406
0.0038457441
0.0038169345
0.0037881047
0.0037592474
0.0037303558
0.0037014234
0.0036724438
0.0036434107
0.0036143182
0.0035851605
0.0035559318
0.0035266265
0.0034972394
0.0034677651
0.0034381984
0.0034085343
0.0033787678
0.0033488942
0.0033189087
0.0032888066
0.0032585836
0.003228235
0.0031977567
0.0031671444
0.003136394
0.0031055014
0.0030744627
0.0030432741
0.0030119318
0.0029804322
0.0029487718
0.0029169471
0.0028849548
0.0028527917
0.0028204546
0.0027879405
0.0027552465
0.0027223697
0.0026893075
0.0026560572
0.0026226163
0.0025889825
0.0025551535
0.002521127
0.0024869012
0.0024524739
0.0024178433
0.0023830078
0.0023479657
0.0023127155
0.0022772559
0.0022415856
0.0022057033
0.0021696082
0.0021332992
0.0020967756
0.0020600367
0.002023082
0.0019859109
0.0019485233
0.0019109188
0.0018730975
0.0018350594
0.0017968047
0.0017583337
0.001719647
0.001680745
0.0016416285
0.0016022984
0.0015627558
0.0015230017
0.0014830375
0.0014428647
0.0014024849
0.0013618999
0.0013211118
0.0012801225
0.0012389346
0.0011975504
0.0011559728
0.0011142046
0.0010722489
0.0010301092
0.00098778892
0.00094529202
0.00090262251
0.00085978474
0.00081678331
0.00077362312
0.00073030935
0.0006868475
0.00064324339
0.00059950315
0.00055563327
0.0005116406
0.0004675323
0.00042331594
0.00037899937
0.00033459107
0.00029009868
0.00024553445
0.00020089406
0.00015623436
0.00011137476
6.7000052e-05
2.0000012e-05
-0.022516021
-0.015948297
-0.011647707
-0.0075589324
-0.0028389352
0.0017417853
0.0055918177
0.0085678738
0.010719025
0.012156283
0.013019216
0.013449435
0.01356757
0.013467294
0.013219439
0.012876762
0.012477656
0.012049454
0.01161111
0.011175659
0.010752042
0.010345945
0.0099605683
0.0095974449
0.0092570431
0.0089391327
0.0086430226
0.0083677342
0.008112126
0.007874979
0.0076550519
0.0074511182
0.0072619899
0.0070865317
0.0069236696
0.0067723948
0.0066317651
0.0065009039
0.0063789983
0.0062652968
0.0061591055
0.0060597853
0.0059667484
0.0058794544
0.0057974073
0.0057201523
0.0056472724
0.0055783859
0.0055131432
0.0054512246
0.0053923377
0.0053362154
0.0052826135
0.005231309
0.0051820983
0.0051347957
0.0050892316
0.0050452514
0.0050027138
0.0049614905
0.0049214639
0.0048825272
0.004844583
0.0048075423
0.0047713241
0.0047358546
0.0047010663
0.004666898
0.0046332934
0.0046002015
0.0045675754
0.0045353727
0.0045035542
0.0044720842
0.0044409301
0.0044100619
0.0043794521
0.0043490755
0.0043189089
0.0042889307
0.0042591213
0.0042294624
0.0041999371
0.0041705296
0.0041412254
0.0041120108
0.004082873
0.0040538002
0.004024781
0.0039958049
0.003966862
0.0039379428
0.0039090382
0.0038801397
0.0038512391
0.0038223287
0.0037934009
0.0037644485
0.0037354645
0.0037064422
0.0036773752
0.003648257
0.0036190817
0.0035898433
0.0035605359
0.003531154
0.003501692
0.0034721446
0.0034425066
0.0034127728
0.0033829382
0.0033529979
0.0033229472
0.0032927813
0.0032624958
0.003232086
0.0032015477
0.0031708766
0.0031400685
0.0031091194
0.0030780252
0.0030467821
0.0030153863
0.0029838342
0.0029521222
0.0029202468
0.0028882047
0.0028559926
0.0028236073
0.0027910458
0.0027583052
0.0027253826
0.0026922752
0.0026589806
0.002625496
0.0025918192
0.0025579479
0.0025238798
0.0024896129
0.0024551452
0.0024204749
0.0023856002
0.0023505196
0.0023152314
0.0022797344
0.0022440272
0.0022081087
0.0021719779
0.0021356337
0.0020990755
0.0020623024
0.0020253141
0.0019881099
0.0019506897
0.0019130531
0.0018752002
0.001837131
0.0017988457
0.0017603445
0.001721628
0.0016826968
0.0016435516
0.0016041932
0.0015646226
0.0015248411
0.0014848499
0.0014446506
0.0014042446
0.001363634
0.0013228205
0.0012818064
0.001240594
0.0011991858
0.0011575845
0.0011157931
0.0010738146
0.0010316525
0.00098931027
0.00094679176
0.00090410106
0.0008612425
0.0008182207
0.00077504054
0.00073170723
0.00068822626
0.00064460347
0.00060084502
0.00055695739
0.00051294744
0.00046882235
0.00042458966
0.000380257
0.00033583288
0.00029132313
0.00024674239
0.0002020681
0.00015740485
0.00011235145
6.8328953e-05
1.8910377e-05
-0.012369057
-0.0091319627
-0.0069663762
-0.0044641953
-0.0010775294
0.0024120332
0.0054480471
0.0079001697
0.0097748616
0.011112521
0.011986711
0.012489663
0.012709425
0.012719651
0.012579577
0.012335971
0.012024795
0.011673075
0.011300784
0.010921554
0.010544509
0.010176613
0.0098226858
0.0094855717
0.0091667449
0.0088667862
0.0085856652
0.0083229344
0.0080778776
0.0078496171
0.007637187
0.007439584
0.0072558013
0.007084853
0.0069257882
0.006777701
0.0066397355
0.0065110882
0.0063910086
0.0062787986
0.0061738104
0.0060754448
0.0059831483
0.0058964107
0.0058147622
0.0057377707
0.0056650393
0.0055962036
0.0055309291
0.0054689095
0.0054098638
0.0053535349
0.0052996874
0.0052481058
0.0051985931
0.005150969
0.005105069
0.0050607424
0.0050178519
0.0049762716
0.004935887
0.0048965932
0.0048582945
0.0048209036
0.0047843407
0.0047485328
0.0047134135
0.0046789219
0.0046450025
0.0046116043
0.0045786811
0.0045461901
0.0045140925
0.0044823526
0.0044509376
0.0044198175
0.0043889646
0.0043583535
0.0043279609
0.0042977649
0.0042677458
0.0042378849
0.004208165
0.0041785702
0.0041490857
0.0041196975
0.0040903925
0.0040611587
0.0040319845
0.0040028591
0.0039737722
0.0039447142
0.0039156758
0.0038866482
0.0038576231
0.0038285924
0.0037995484
0.0037704837
0.0037413911
0.0037122638
0.003683095
0.0036538784
0.0036246076
0.0035952765
0.0035658793
0.0035364101
0.0035068633
0.0034772334
0.0034475151
0.0034177032
0.0033877924
0.003357778
0.0033276548
0.0032974183
0.0032670637
0.0032365865
0.0032059822
0.0031752466
0.0031443753
0.0031133642
0.0030822093
0.0030509067
0.0030194525
0.0029878431
0.0029560747
0.002924144
0.0028920475
0.0028597819
0.002827344
0.0027947307
0.0027619391
0.0027289663
0.0026958095
0.0026624661
0.0026289335
0.0025952093
0.0025612912
0.002527177
0.0024928646
0.002458352
0.0024236374
0.0023887189
0.002353595
0.0023182641
0.0022827248
0.0022469759
0.0022110161
0.0021748445
0.00213846
0.0021018618
0.0020650493
0.0020280219
0.0019907791
0.0019533206
0.0019156462
0.0018777557
0.0018396493
0.0018013272
0.0017627895
0.0017240369
0.0016850698
0.0016458889
0.0016064952
0.0015668896
0.0015270733
0.0014870475
0.0014468138
0.0014063737
0.0013657291
0.0013248818
0.001283834
0.001242588
0.0012011464
0.0011595117
0.0011176869
0.0010756752
0.0010334798
0.00099110424
0.00094855241
0.00090582834
0.00086293632
0.00081988097
0.00077666715
0.00073330005
0.00068978516
0.00064612831
0.00060233566
0.00055841373
0.00051436938
0.00047020978
0.00042594249
0.00038157489
0.00033711555
0.00029256784
0.00024795069
0.00020321577
0.00015854338
0.00011321836
6.9720887e-05
1.7022864e-05
-0.0078962135
-0.007134755
-0.0055587891
-0.0032749889
-0.00052782236
0.0022549771
0.0047661724
0.0068853301
0.0085798149
0.0098561834
0.01075377
0.011332278
0.011654855
0.011778674
0.011752609
0.011617217
0.011405134
0.011141988
0.010847183
0.010535066
0.010216403
0.0098991182
0.0095887652
0.0092890176
0.0090021834
0.0087296037
0.0084719186
0.0082292621
0.0080014154
0.007787922
0.0075881715
0.0074014598
0.0072270328
0.0070641176
0.0069119441
0.0067697602
0.0066368412
0.006512496
0.0063960711
0.006286952
0.0061845636
0.0060883697
0.0059978719
0.005912608
0.0058321506
0.0057561044
0.005684105
0.0056158166
0.0055509299
0.0054891606
0.0054302474
0.00537395
0.0053200483
0.00526834
0.0052186396
0.0051707773
0.0051245971
0.0050799566
0.0050367248
0.0049947822
0.0049540191
0.0049143353
0.0048756388
0.0048378457
0.0048008789
0.004764668
0.0047291484
0.004694261
0.0046599517
0.0046261708
0.0045928729
0.004560016
0.0045275619
0.0044954753
0.0044637238
0.0044322775
0.0044011089
0.0043701926
0.0043395052
0.0043090249
0.0042787316
0.0042486065
0.0042186324
0.0041887929
0.0041590729
0.0041294583
0.0040999358
0.0040704928
0.0040411176
0.004011799
0.0039825265
0.00395329
0.00392408
0.0038948875
0.0038657038
0.0038365204
0.0038073295
0.0037781234
0.0037488946
0.0037196359
0.0036903405
0.0036610017
0.0036316129
0.0036021679
0.0035726604
0.0035430845
0.0035134345
0.0034837045
0.0034538892
0.003423983
0.0033939808
0.0033638774
0.0033336677
0.0033033468
0.0032729101
0.0032423527
0.0032116701
0.003180858
0.0031499119
0.0031188276
0.003087601
0.0030562281
0.003024705
0.0029930278
0.002961193
0.0029291969
0.0028970361
0.0028647072
0.0028322069
0.0027995322
0.00276668
0.0027336473
0.0027004315
0.0026670297
0.0026334395
0.0025996584
0.002565684
0.002531514
0.0024971464
0.0024625791
0.0024278103
0.0023928382
0.0023576611
0.0023222774
0.0022866858
0.0022508849
0.0022148736
0.0021786507
0.0021422153
0.0021055666
0.0020687038
0.0020316264
0.0019943338
0.0019568258
0.001919102
0.0018811625
0.0018430072
0.0018046362
0.0017660499
0.0017272487
0.0016882331
0.0016490038
0.0016095617
0.0015699077
0.0015300429
0.0014899686
0.0014496862
0.0014091973
0.0013685037
0.0013276072
0.00128651
0.0012452142
0.0012037224
0.0011620372
0.0011201615
0.0010780982
0.0010358507
0.00099342247
0.00095081724
0.00090803902
0.00086509205
0.00082198088
0.00077871033
0.00073528554
0.00069171198
0.00064799543
0.00060414208
0.00056015846
0.00051605149
0.00047182841
0.00042749697
0.00038306448
0.00033854036
0.00029392558
0.0002492482
0.00020442742
0.00015976321
0.00011411279
7.1460855e-05
1.4524218e-05
-0.0050374623
-0.0044909105
-0.0031114328
-0.0012685902
0.00076176714
0.0028257308
0.0047704427
0.0064786377
0.0078938166
0.0090048331
0.0098284882
0.010397925
0.010753227
0.010934715
0.01097946
0.010919847
0.010783128
0.010591443
0.010362595
0.010110869
0.0098470811
0.0095789986
0.0093122652
0.0090509722
0.0087979625
0.0085550942
0.0083234837
0.0081037017
0.0078959209
0.00770003
0.0075157195
0.0073425477
0.0071799884
0.0070274674
0.0068843872
0.0067501468
0.0066241533
0.0065058321
0.0063946316
0.0062900277
0.0061915253
0.0060986592
0.0060109944
0.0059281252
0.0058496742
0.0057752914
0.0057046526
0.0056374579
0.0055734306
0.0055123151
0.0054538758
0.0053978958
0.0053441755
0.005292531
0.0052427935
0.0051948075
0.0051484303
0.0051035308
0.0050599885
0.0050176927
0.0049765419
0.0049364427
0.0048973095
0.0048590636
0.0048216327
0.0047849505
0.0047489558
0.0047135928
0.0046788097
0.0046445592
0.0046107975
0.0045774846
0.0045445832
0.0045120591
0.0044798809
0.0044480192
0.0044164471
0.0043851394
0.004354073
0.0043232263
0.004292579
0.0042621126
0.0042318094
0.0042016531
0.0041716283
0.0041417206
0.0041119163
0.0040822027
0.0040525676
0.0040229995
0.0039934876
0.0039640213
0.0039345909
0.0039051869
0.0038758001
0.0038464219
0.003817044
0.0037876582
0.0037582568
0.0037288324
0.0036993775
0.0036698853
0.0036403489
0.0036107617
0.0035811172
0.0035514092
0.0035216315
0.0034917784
0.0034618439
0.0034318224
0.0034017084
0.0033714967
0.0033411819
0.0033107589
0.0032802229
0.0032495689
0.0032187921
0.0031878881
0.0031568523
0.0031256804
0.003094368
0.0030629111
0.0030313056
0.0029995477
0.0029676336
0.0029355595
0.0029033219
0.0028709174
0.0028383427
0.0028055946
0.0027726699
0.0027395657
0.0027062791
0.0026728073
0.0026391478
0.0026052981
0.0025712556
0.0025370183
0.0025025838
0.0024679501
0.0024331154
0.0023980777
0.0023628355
0.0023273871
0.002291731
0.002255866
0.0022197908
0.0021835042
0.0021470054
0.0021102934
0.0020733675
0.002036227
0.0019988716
0.0019613007
0.0019235141
0.0018855117
0.0018472935
0.0018088596
0.0017702102
0.0017313457
0.0016922667
0.0016529738
0.0016134677
0.0015737495
0.0015338201
0.0014936807
0.0014533328
0.0014127779
0.0013720175
0.0013310537
0.0012898883
0.0012485236
0.001206962
0.0011652059
0.0011232583
0.0010811219
0.0010388
0.00099629604
0.0009536136
0.00091075658
0.00086772914
0.00082453571
0.00078118102
0.00073767011
0.00069400838
0.00065020158
0.00060625585
0.00056217778
0.00051797441
0.00047365317
0.00042922224
0.00038468933
0.00034006569
0.00029535097
0.00025058679
0.00020565928
0.00016101422
0.00011503369
7.339724e-05
1.1914221e-05
-0.0028290132
-0.0024203785
-0.0014345188
-6.7849587e-05
0.0014763372
0.0030852456
0.0046492468
0.0060653674
0.0072729806
0.0082528574
0.0090096476
0.0095609483
0.0099320982
0.010151775
0.010248293
0.010247516
0.010172064
0.010041041
0.0098703469
0.0096731331
0.0094596736
0.0092375454
0.0090124291
0.0087886244
0.0085692665
0.0083565258
0.008151832
0.0079560625
0.0077696806
0.0075928428
0.0074254831
0.0072673789
0.0071182011
0.0069775512
0.006844989
0.0067200535
0.0066022773
0.0064911977
0.0063863635
0.0062873404
0.0061937141
0.0061050921
0.0060211049
0.0059414056
0.0058656702
0.0057935968
0.0057249047
0.0056593334
0.0055966415
0.0055366057
0.0054790195
0.0054236924
0.0053704483
0.005319125
0.0052695727
0.0052216536
0.0051752406
0.0051302166
0.0050864739
0.005043913
0.0050024426
0.0049619783
0.0049224425
0.0048837636
0.0048458758
0.0048087182
0.0047722348
0.0047363738
0.0047010873
0.0046663313
0.0046320649
0.0045982503
0.0045648526
0.0045318392
0.0044991801
0.0044668472
0.0044348146
0.004403058
0.0043715548
0.0043402838
0.0043092253
0.0042783607
0.0042476726
0.0042171446
0.0041867613
0.0041565081
0.0041263712
0.0040963377
0.0040663949
0.0040365313
0.0040067354
0.0039769966
0.0039473045
0.0039176494
0.0038880217
0.0038584123
0.0038288126
0.0037992139
0.0037696082
0.0037399876
0.0037103444
0.0036806711
0.0036509607
0.003621206
0.0035914004
0.0035615372
0.00353161
0.0035016126
0.0034715388
0.0034413827
0.0034111386
0.0033808008
0.0033503638
0.0033198223
0.0032891711
0.0032584051
0.0032275194
0.0031965092
0.0031653697
0.0031340965
0.0031026851
0.0030711312
0.0030394307
0.0030075795
0.0029755737
0.0029434094
0.0029110832
0.0028785912
0.0028459303
0.0028130969
0.002780088
0.0027469006
0.0027135315
0.0026799781
0.0026462376
0.0026123075
0.0025781853
0.0025438686
0.0025093553
0.0024746432
0.0024397304
0.0024046149
0.0023692951
0.0023337694
0.0022980362
0.0022620942
0.002225942
0.0021895786
0.0021530029
0.0021162141
0.0020792113
0.0020419938
0.0020045612
0.0019669129
0.0019290488
0.0018909686
0.0018526722
0.0018141598
0.0017754316
0.0017364878
0.0016973289
0.0016579555
0.0016183684
0.0015785683
0.0015385563
0.0014983335
0.0014579012
0.0014172608
0.001376414
0.0013353624
0.001294108
0.0012526528
0.0012109992
0.0011691494
0.0011271062
0.0010848724
0.001042451
0.00099984532
0.00095705875
0.00091409506
0.00087095824
0.00082765255
0.00078418258
0.00074055323
0.00069676974
0.00065283779
0.00060876346
0.00056455335
0.00052021464
0.00047575507
0.00043118344
0.00038650827
0.00034174339
0.00029688838
0.00025200043
0.00020693666
0.00016228847
0.00011599034
7.5316351e-05
9.6624934e-06
-0.0011669512
-0.00084843035
-6.3264069e-05
0.0010459917
0.0022834649
0.0035550271
0.0047981029
0.0059419151
0.0069361359
0.0077619883
0.0084187685
0.0089146551
0.0092647701
0.0094887614
0.0096073954
0.009640421
0.0096057513
0.0095191112
0.00939386
0.0092413697
0.0090708935
0.0088894373
0.0087023177
0.0085136501
0.0083265388
0.0081432238
0.0079652636
0.0077936987
0.0076291728
0.007472027
0.0073223767
0.0071801727
0.0070452488
0.0069173576
0.0067961982
0.0066814369
0.0065727225
0.0064696979
0.0063720079
0.0062793055
0.0061912555
0.0061075374
0.0060278469
0.0059518966
0.0058794163
0.0058101534
0.0057438716
0.0056803513
0.0056193879
0.005560792
0.0055043876
0.0054500121
0.0053975148
0.0053467564
0.0052976082
0.0052499513
0.0052036759
0.0051586804
0.0051148711
0.0050721615
0.0050304715
0.0049897271
0.0049498602
0.0049108073
0.0048725101
0.0048349144
0.00479797
0.0047616305
0.0047258526
0.0046905963
0.0046558245
0.0046215024
0.0045875979
0.0045540808
0.004520923
0.0044880983
0.0044555822
0.0044233517
0.004391385
0.0043596619
0.0043281632
0.004296871
0.004265768
0.0042348382
0.0042040663
0.0041734378
0.0041429387
0.004112556
0.004082277
0.0040520897
0.0040219826
0.0039919446
0.0039619652
0.0039320341
0.0039021414
0.0038722777
0.0038424338
0.0038126009
0.0037827704
0.0037529339
0.0037230834
0.0036932111
0.0036633093
0.0036333708
0.0036033883
0.0035733549
0.0035432638
0.0035131083
0.003482882
0.0034525787
0.0034221922
0.0033917167
0.0033611463
0.0033304755
0.0032996986
0.0032688105
0.003237806
0.0032066799
0.0031754274
0.0031440438
0.0031125243
0.0030808646
0.0030490603
0.0030171072
0.0029850011
0.0029527382
0.0029203147
0.0028877268
0.002854971
0.0028220438
0.0027889421
0.0027556626
0.0027222023
0.0026885583
0.0026547278
0.0026207081
0.0025864967
0.0025520912
0.0025174894
0.002482689
0.002447688
0.0024124845
0.0023770767
0.002341463
0.0023056418
0.0022696116
0.0022333712
0.0021969193
0.0021602549
0.0021233771
0.0020862849
0.0020489778
0.002011455
0.0019737161
0.0019357609
0.0018975889
0.0018592002
0.0018205947
0.0017817726
0.0017427341
0.0017034797
0.0016640097
0.0016243249
0.0015844261
0.001544314
0.0015039899
0.0014634547
0.00142271
0.0013817571
0.0013405976
0.0012992334
0.0012576663
0.0012158985
0.0011739322
0.0011317698
0.0010894141
0.0010468679
0.0010041341
0.00096121613
0.00091811743
0.00087484179
0.00083139323
0.00078777612
0.00074399513
0.0007000553
0.00065596212
0.00061172156
0.00056734016
0.00052282517
0.00047818459
0.00043342789
0.00038856448
0.00034361082
0.00029856736
0.0002535051
0.00020826079
0.00016354085
0.00011694392
7.6929681e-05
8.2093153e-06
6.3145876e-05
0.0003552901
0.0010558012
0.0019841848
0.0029701934
0.0039796592
0.0049791637
0.0059047988
0.0067152746
0.0073993912
0.0079556897
0.0083865923
0.0087009088
0.0089123924
0.0090362482
0.0090873005
0.0090794391
0.0090252348
0.0089355719
0.0088199636
0.0086863808
0.0085409336
0.0083883232
0.0082322727
0.0080756667
0.0079206525
0.0077687822
0.007621146
0.0074784746
0.0073412193
0.0072096184
0.0070837511
0.0069635795
0.0068489814
0.006739776
0.006635743
0.0065366375
0.0064422012
0.0063521704
0.0062662822
0.0061842789
0.0061059111
0.0060309395
0.0059591361
0.0058902854
0.0058241843
0.0057606422
0.0056994808
0.0056405334
0.0055836452
0.0055286717
0.0054754791
0.0054239429
0.0053739477
0.0053253866
0.0052781604
0.0052321773
0.0051873522
0.0051436061
0.0051008659
0.0050590638
0.0050181369
0.0049780267
0.004938679
0.0049000434
0.0048620729
0.0048247239
0.0047879556
0.0047517301
0.0047160119
0.0046807679
0.004645967
0.0046115802
0.00457758
0.0045439409
0.0045106386
0.0044776505
0.0044449549
0.0044125317
0.0043803614
0.0043484259
0.0043167079
0.0042851907
0.0042538587
0.0042226969
0.0041916909
0.004160827
0.004130092
0.0040994732
0.0040689586
0.0040385363
0.0040081952
0.0039779243
0.0039477131
0.0039175515
0.0038874296
0.0038573379
0.0038272671
0.0037972083
0.0037671527
0.003737092
0.0037070178
0.0036769222
0.0036467975
0.003616636
0.0035864303
0.0035561734
0.0035258582
0.003495478
0.0034650262
0.0034344962
0.0034038819
0.0033731771
0.003342376
0.0033114727
0.0032804616
0.0032493374
0.0032180947
0.0031867284
0.0031552334
0.003123605
0.0030918385
0.0030599292
0.003027873
0.0029956653
0.0029633023
0.0029307798
0.0028980941
0.0028652416
0.0028322185
0.0027990216
0.0027656475
0.0027320931
0.0026983554
0.0026644315
0.0026303188
0.0025960144
0.0025615161
0.0025268214
0.0024919281
0.002456834
0.0024215373
0.0023860361
0.0023503285
0.0023144131
0.0022782884
0.0022419529
0.0022054055
0.0021686449
0.0021316703
0.0020944807
0.0020570754
0.0020194536
0.0019816149
0.0019435589
0.0019052853
0.0018667938
0.0018280844
0.0017891573
0.0017500125
0.0017106503
0.0016710712
0.0016312758
0.0015912646
0.0015510385
0.0015105984
0.0014699454
0.0014290806
0.0013880053
0.0013467211
0.0013052294
0.0012635322
0.0012216312
0.0011795286
0.0011372265
0.0010947274
0.001052034
0.0010091489
0.00096607523
0.00092281618
0.00087937522
0.00083575609
0.00079196285
0.00074799984
0.00070387183
0.00065958401
0.00061514209
0.0005705524
0.00052582213
0.00048095931
0.00043597378
0.0003908756
0.000345683
0.00030039767
0.00025509892
0.00020961559
0.00016471162
0.00011783693
7.7962051e-05
7.900505e-06
0.0008972521
0.0012598226
0.0020292877
0.0028216043
0.0035480332
0.0043234226
0.0051286359
0.0058762786
0.0065308628
0.0070914929
0.007556037
0.0079225807
0.0081964762
0.0083879507
0.0085082054
0.0085682533
0.008578733
0.0085495003
0.0084892364
0.0084056224
0.0083051002
0.0081926446
0.0080722582
0.007947172
0.0078199235
0.0076924541
0.0075662189
0.0074422842
0.0073214083
0.0072041065
0.0070907044
0.0069813824
0.0068762104
0.0067751762
0.006678208
0.0065851908
0.0064959804
0.006410413
0.0063283136
0.006249502
0.0061737969
0.0061010191
0.0060309945
0.0059635547
0.0058985388
0.0058357938
0.0057751751
0.0057165462
0.0056597789
0.0056047534
0.0055513573
0.0054994858
0.0054490411
0.0053999323
0.0053520744
0.0053053884
0.0052598009
0.0052152433
0.0051716519
0.0051289673
0.0050871341
0.0050461006
0.0050058186
0.0049662431
0.0049273319
0.0048890455
0.004851347
0.0048142017
0.004777577
0.0047414421
0.0047057682
0.0046705281
0.0046356959
0.0046012473
0.0045671592
0.0045334096
0.0044999778
0.0044668439
0.004433989
0.0044013951
0.0043690448
0.0043369218
0.00430501
0.0042732944
0.0042417603
0.0042103937
0.0041791809
0.0041481089
0.004117165
0.0040863371
0.0040556132
0.0040249821
0.0039944324
0.0039639535
0.003933535
0.0039031666
0.0038728385
0.0038425411
0.003812265
0.0037820012
0.0037517408
0.0037214752
0.0036911961
0.0036608953
0.0036305647
0.0036001967
0.0035697838
0.0035393185
0.0035087938
0.0034782027
0.0034475383
0.0034167942
0.0033859638
0.0033550411
0.0033240198
0.0032928941
0.0032616583
0.0032303068
0.0031988343
0.0031672354
0.0031355053
0.0031036389
0.0030716315
0.0030394785
0.0030071756
0.0029747183
0.0029421026
0.0029093245
0.0028763802
0.0028432659
0.0028099783
0.0027765137
0.0027428691
0.0027090413
0.0026750272
0.0026408242
0.0026064294
0.0025718403
0.0025370546
0.0025020698
0.0024668838
0.0024314945
0.0023959001
0.0023600988
0.0023240889
0.0022878688
0.0022514371
0.0022147926
0.002177934
0.0021408603
0.0021035705
0.0020660639
0.0020283397
0.0019903973
0.0019522362
0.0019138561
0.0018752567
0.0018364379
0.0017973996
0.001758142
0.0017186652
0.0016789696
0.0016390555
0.0015989236
0.0015585745
0.001518009
0.001477228
0.0014362326
0.0013950238
0.0013536029
0.0013119715
0.0012701309
0.001228083
0.0011858295
0.0011433724
0.0011007139
0.0010578563
0.001014802
0.00097155384
0.00092811462
0.00088448746
0.00084067575
0.00079668313
0.00075251356
0.00070817138
0.00066366137
0.00061898881
0.00057415965
0.00052918068
0.00048405966
0.00043880624
0.00039343048
0.00034795088
0.00030237008
0.0002567677
0.00021097944
0.00016575248
0.00011862166
7.8236821e-05
8.9154158e-06
0.001264942
0.0018230992
0.0029823872
0.0038459228
0.0044311178
0.0050300483
0.0056313943
0.0061610956
0.0066207714
0.0070223607
0.0073598446
0.007628579
0.0078324945
0.0079785017
0.0080734
0.0081241343
0.0081377612
0.0081207861
0.0080797196
0.0080201336
0.0079460048
0.0078610406
0.0077684663
0.0076708508
0.0075702109
0.0074681354
0.0073658599
0.0072643266
0.0071642403
0.0070661162
0.006970317
0.0068770844
0.0067865655
0.0066988342
0.0066139094
0.0065317674
0.0064523535
0.0063755903
0.0063013848
0.006229634
0.006160229
0.0060930581
0.0060280091
0.0059649714
0.005903837
0.0058445017
0.0057868654
0.0057308326
0.0056763128
0.0056232201
0.0055714738
0.0055209977
0.0054717201
0.0054235738
0.0053764957
0.0053304267
0.0052853111
0.005241097
0.0051977355
0.0051551807
0.0051133895
0.0050723212
0.0050319379
0.0049922034
0.0049530838
0.0049145471
0.004876563
0.0048391026
0.0048021388
0.0047656456
0.0047295984
0.0046939737
0.004658749
0.0046239031
0.0045894154
0.0045552662
0.0045214368
0.0044879089
0.0044546653
0.004421689
0.0043889639
0.0043564743
0.0043242052
0.0042921419
0.0042602703
0.0042285765
0.0041970473
0.0041656697
0.0041344311
0.0041033194
0.0040723226
0.0040414291
0.0040106277
0.0039799073
0.0039492573
0.0039186673
0.003888127
0.0038576265
0.0038271563
0.0037967067
0.0037662687
0.0037358333
0.0037053916
0.0036749353
0.0036444559
0.0036139454
0.0035833958
0.0035527994
0.0035221489
0.0034914367
0.0034606559
0.0034297996
0.0033988609
0.0033678334
0.0033367107
0.0033054866
0.0032741552
0.0032427106
0.0032111472
0.0031794595
0.0031476423
0.0031156904
0.0030835989
0.003051363
0.003018978
0.0029864396
0.0029537434
0.0029208854
0.0028878614
0.0028546677
0.0028213007
0.0027877568
0.0027540326
0.002720125
0.0026860308
0.0026517472
0.0026172713
0.0025826005
0.0025477322
0.0025126642
0.0024773941
0.0024419199
0.0024062395
0.0023703511
0.002334253
0.0022979436
0.0022614214
0.0022246851
0.0021877333
0.0021505651
0.0021131793
0.0020755751
0.0020377517
0.0019997085
0.0019614449
0.0019229604
0.0018842548
0.0018453278
0.0018061792
0.0017668092
0.0017272178
0.0016874051
0.0016473715
0.0016071175
0.0015666436
0.0015259503
0.0014850385
0.0014439089
0.0014025627
0.0013610008
0.0013192244
0.0012772349
0.0012350338
0.0011926225
0.0011500028
0.0011071766
0.0010641458
0.0010209126
0.00097747934
0.00093384846
0.00089002271
0.00084600501
0.00080179855
0.0007574068
0.00071283356
0.00066808305
0.00062315998
0.00057806964
0.00053281814
0.0004874125
0.00044186149
0.00039617438
0.00035036805
0.00030444555
0.00025847796
0.00021232267
0.00016663345
0.00011926859
7.7717182e-05
1.1222393e-05
0.0011210539
0.0022233936
0.00329203
0.0037632196
0.0043294389
0.0050451492
0.0056366014
0.0060795775
0.0064572163
0.0067894026
0.0070630289
0.0072778392
0.0074427166
0.0075646421
0.0076483588
0.0076989236
0.0077217791
0.0077216255
0.0077020846
0.0076661866
0.0076170497
0.0075577381
0.0074908144
0.0074182999
0.0073418274
0.0072627327
0.0071820941
0.0071007696
0.0070194368
0.0069386236
0.0068587334
0.006780066
0.0067028376
0.0066271985
0.0065532467
0.0064810382
0.0064105958
0.0063419164
0.0062749785
0.0062097462
0.0061461739