/*--------------------------------*- C++ -*----------------------------------*\
| =========                 |                                                 |
| \\      /  F ield         | OpenFOAM: The Open Source CFD Toolbox           |
|  \\    /   O peration     | Version:  2406                                  |
|   \\  /    A nd           | Website:  www.openfoam.com                      |
|    \\/     M anipulation  |                                                 |
\*---------------------------------------------------------------------------*/
FoamFile
{
    version     2.0;
    format      ascii;
    arch        "LSB;label=32;scalar=64";
    class       surfaceScalarField;
    location    "1460";
    object      phi;
}
// * * * * * * * * * * * * * * * * * * * * * * * * * * * * * * * * * * * * * //

dimensions      [0 3 -1 0 0 0 0];

oriented        oriented;

internalField   nonuniform List<scalar> 
20149
(
5.8156058e-13
-5.8156058e-13
1.2806086e-12
-6.9904806e-13
1.4947928e-12
-2.141842e-13
1.4517152e-12
4.3077616e-14
1.3312359e-12
1.204793e-13
1.2021877e-12
1.2904823e-13
1.0853238e-12
1.1686386e-13
9.8436935e-13
1.0095448e-13
8.9776798e-13
8.6601371e-14
8.2305768e-13
7.4710299e-14
7.5810549e-13
6.4952196e-14
7.0123799e-13
5.6867498e-14
6.5114622e-13
5.009177e-14
6.0678964e-13
4.4356577e-14
5.6732609e-13
3.9463552e-14
5.3206341e-13
3.5262678e-14
5.0042602e-13
3.1637389e-14
4.7193095e-13
2.849508e-14
4.4617e-13
2.5760943e-14
4.2279624e-13
2.3373757e-14
4.0151336e-13
2.1282888e-14
3.8206725e-13
1.9446102e-14
3.6423934e-13
1.7827919e-14
3.4784097e-13
1.6398362e-14
3.32709e-13
1.5131975e-14
3.1870195e-13
1.4007047e-14
3.0569696e-13
1.3004994e-14
2.935871e-13
1.2109861e-14
2.8227919e-13
1.1307906e-14
2.7169192e-13
1.0587272e-14
2.6175422e-13
9.9376999e-15
2.5240392e-13
9.3503031e-15
2.4358655e-13
8.8173696e-15
2.3525435e-13
8.3321997e-15
2.2736538e-13
7.8889669e-15
2.1988278e-13
7.4826001e-15
2.127741e-13
7.1086839e-15
2.0601072e-13
6.7633712e-15
1.9956741e-13
6.4433102e-15
1.9342183e-13
6.1455798e-15
1.875542e-13
5.8676348e-15
1.8194694e-13
5.6072572e-15
1.7658443e-13
5.3625151e-15
1.714527e-13
5.1317263e-15
1.6653927e-13
4.9134262e-15
1.6183293e-13
4.7063403e-15
1.5732357e-13
4.5093604e-15
1.5300205e-13
4.3215224e-15
1.4886006e-13
4.1419891e-15
1.4489003e-13
3.9700324e-15
1.4108501e-13
3.8050203e-15
1.3743861e-13
3.6464037e-15
1.339449e-13
3.4937058e-15
1.3059839e-13
3.3465123e-15
1.2739393e-13
3.2044631e-15
1.2432668e-13
3.0672447e-15
1.213921e-13
2.9345844e-15
1.1858585e-13
2.806244e-15
1.1590384e-13
2.6820151e-15
1.1334212e-13
2.5617152e-15
1.1089694e-13
2.4451834e-15
1.0856466e-13
2.3322776e-15
1.0634179e-13
2.2228716e-15
1.0422494e-13
2.1168526e-15
1.0221082e-13
2.0141191e-15
1.0029624e-13
1.9145795e-15
9.8478088e-14
1.8181498e-15
9.6753335e-14
1.7247532e-15
9.5119017e-14
1.6343182e-15
9.3572239e-14
1.5467781e-15
9.2110169e-14
1.4620702e-15
9.0730034e-14
1.3801347e-15
8.9429119e-14
1.3009149e-15
8.8204763e-14
1.2243558e-15
8.7054359e-14
1.1504046e-15
8.5975349e-14
1.0790097e-15
8.4965228e-14
1.0101207e-15
8.402154e-14
9.4368846e-16
8.3141875e-14
8.7966436e-16
8.2323875e-14
8.1800053e-16
8.1565225e-14
7.5864971e-16
8.086366e-14
7.0156503e-16
8.021696e-14
6.4670004e-16
7.9622951e-14
5.9400857e-16
7.9079507e-14
5.4344473e-16
7.8584544e-14
4.9496286e-16
7.8136026e-14
4.4851747e-16
7.7731963e-14
4.0406328e-16
7.7370408e-14
3.6155517e-16
7.704946e-14
3.2094811e-16
7.6767262e-14
2.8219725e-16
7.6522004e-14
2.452578e-16
7.6311919e-14
2.1008512e-16
7.6135284e-14
1.7663465e-16
7.5990423e-14
1.4486189e-16
7.58757e-14
1.1472255e-16
7.5789528e-14
8.6172304e-17
7.5730361e-14
5.9167149e-17
7.5696697e-14
3.3663086e-17
7.5687081e-14
9.6163208e-18
7.5700098e-14
-1.3016876e-17
7.5734378e-14
-3.4279894e-17
7.5788594e-14
-5.4215959e-17
7.5861462e-14
-7.286796e-17
7.595174e-14
-9.0278641e-17
7.6058231e-14
-1.0649039e-16
7.6179776e-14
-1.2154542e-16
7.6315262e-14
-1.354854e-16
7.6463613e-14
-1.4835176e-16
7.6623799e-14
-1.6018533e-16
7.6794825e-14
-1.7102652e-16
7.697574e-14
-1.8091524e-16
7.7165631e-14
-1.8989094e-16
7.7363623e-14
-1.979924e-16
7.7568881e-14
-2.0525789e-16
7.7780606e-14
-2.117249e-16
7.7998036e-14
-2.1743026e-16
7.8220446e-14
-2.2241012e-16
7.8447145e-14
-2.2669982e-16
7.8677479e-14
-2.3033401e-16
7.8910826e-14
-2.333466e-16
7.9146596e-14
-2.3577058e-16
7.9384234e-14
-2.3763822e-16
7.9623215e-14
-2.3898076e-16
7.9863043e-14
-2.3982861e-16
8.0103254e-14
-2.4021133e-16
8.0343412e-14
-2.4015762e-16
8.0583107e-14
-2.3969523e-16
8.0821958e-14
-2.3885108e-16
8.1059609e-14
-2.3765103e-16
8.1295729e-14
-2.3612005e-16
8.1530011e-14
-2.3428224e-16
8.1762171e-14
-2.3216082e-16
8.1991949e-14
-2.2977809e-16
8.2219105e-14
-2.271555e-16
8.2443418e-14
-2.2431355e-16
8.2664689e-14
-2.2127177e-16
8.2882738e-14
-2.1804901e-16
8.30974e-14
-2.1466305e-16
8.3308531e-14
-2.1113106e-16
8.3516e-14
-2.0746933e-16
8.3719693e-14
-2.036934e-16
8.3919511e-14
-1.9981802e-16
8.4115368e-14
-1.9585714e-16
8.4307192e-14
-1.918239e-16
8.4494922e-14
-1.8773084e-16
8.4678512e-14
-1.8358976e-16
8.4857923e-14
-1.7941184e-16
8.5033131e-14
-1.752076e-16
8.5204118e-14
-1.7098694e-16
8.5370876e-14
-1.6675906e-16
8.5533409e-14
-1.6253268e-16
8.5691725e-14
-1.5831593e-16
8.5845841e-14
-1.5411638e-16
8.5995782e-14
-1.4994121e-16
8.6141579e-14
-1.4579692e-16
8.6283269e-14
-1.4168976e-16
8.6420894e-14
-1.3762527e-16
8.6554503e-14
-1.3360885e-16
8.6684148e-14
-1.2964522e-16
8.6809887e-14
-1.2573895e-16
8.6931781e-14
-1.2189408e-16
8.7049895e-14
-1.1811444e-16
8.7164298e-14
-1.1440344e-16
8.7275062e-14
-1.1076416e-16
8.7382261e-14
-1.071995e-16
8.7485973e-14
-1.0371201e-16
8.7586277e-14
-1.0030413e-16
8.7683255e-14
-9.6978006e-17
8.777699e-14
-9.3735625e-17
8.7867568e-14
-9.0578622e-17
8.7955077e-14
-8.75087e-17
8.8039604e-14
-8.4527291e-17
8.8121239e-14
-8.1635798e-17
8.8200075e-14
-7.8835599e-17
8.8276203e-14
-7.6127974e-17
8.8349717e-14
-7.3514243e-17
8.8420712e-14
-7.0995834e-17
8.8489286e-14
-6.8574226e-17
8.8555537e-14
-6.6251287e-17
8.8619566e-14
-6.402896e-17
8.8681476e-14
-6.1910064e-17
8.8741373e-14
-5.9897852e-17
8.879937e-14
-5.7997078e-17
8.8855584e-14
-5.6213852e-17
8.8910141e-14
-5.455721e-17
8.896318e-14
-5.3039452e-17
8.9014859e-14
-5.1679135e-17
8.9065362e-14
-5.0503172e-17
8.9114914e-14
-4.9552875e-17
8.9163805e-14
-4.8891132e-17
8.9212422e-14
-4.8616958e-17
8.926131e-14
-4.8888504e-17
8.931128e-14
-4.9970795e-17
8.936361e-14
-5.2330176e-17
8.9420423e-14
-5.681302e-17
8.9485532e-14
-6.5109458e-17
8.9567147e-14
-8.1615169e-17
8.9681873e-14
-1.1472524e-16
-1.6524015e-16
3.0895896e-12
-3.6711502e-12
4.1113228e-12
-1.7207812e-12
4.2456464e-12
-3.4850773e-13
4.0478775e-12
2.4084652e-13
3.7346284e-12
4.3372838e-13
3.4105933e-12
4.5308329e-13
3.1125865e-12
4.1487072e-13
2.8484747e-12
3.6506626e-13
2.6165816e-12
3.1849443e-13
2.412821e-12
2.7847094e-13
2.2331091e-12
2.4466405e-13
2.0739348e-12
2.1604181e-13
1.9323705e-12
1.9165607e-13
1.8059803e-12
1.7074675e-13
1.6927262e-12
1.5271769e-13
1.5908903e-12
1.370986e-13
1.4990148e-12
1.235129e-13
1.4158554e-12
1.1165449e-13
1.3403448e-12
1.0127149e-13
1.2715641e-12
9.2154488e-14
1.2087191e-12
8.4127904e-14
1.1511217e-12
7.704348e-14
1.0981743e-12
7.0775304e-14
1.0493567e-12
6.5215919e-14
1.0042155e-12
6.0273244e-14
9.6235442e-13
5.5868098e-14
9.2342722e-13
5.1932191e-14
8.8713061e-13
4.8406474e-14
8.5319874e-13
4.5239772e-14
8.2139836e-13
4.2387655e-14
7.9152458e-13
3.9811478e-14
7.633973e-13
3.7477589e-14
7.3685802e-13
3.5356644e-14
7.1176718e-13
3.3423037e-14
6.8800175e-13
3.1654405e-14
6.6545314e-13
3.0031204e-14
6.4402547e-13
2.8536355e-14
6.2363392e-13
2.7154921e-14
6.0420339e-13
2.5873844e-14
5.8566726e-13
2.4681707e-14
5.6796637e-13
2.3568527e-14
5.5104804e-13
2.2525581e-14
5.3486531e-13
2.1545246e-14
5.1937617e-13
2.0620866e-14
5.0454297e-13
1.974663e-14
4.9033185e-13
1.8917465e-14
4.7671226e-13
1.812895e-14
4.6365655e-13
1.737723e-14
4.5113959e-13
1.6658946e-14
4.3913845e-13
1.5971172e-14
4.2763211e-13
1.531136e-14
4.1660122e-13
1.4677295e-14
4.0602788e-13
1.4067045e-14
3.9589546e-13
1.347893e-14
3.8618844e-13
1.2911489e-14
3.7689224e-13
1.2363445e-14
3.6799314e-13
1.1833687e-14
3.5947814e-13
1.1321242e-14
3.5133489e-13
1.0825262e-14
3.4355161e-13
1.0344998e-14
3.36117e-13
9.8797949e-15
3.290202e-13
9.4290711e-15
3.2225076e-13
8.9923114e-15
3.1579856e-13
8.5690556e-15
3.0965379e-13
8.1588907e-15
3.0380693e-13
7.7614433e-15
2.982487e-13
7.3763736e-15
2.9297009e-13
7.0033699e-15
2.8796226e-13
6.6421437e-15
2.8321661e-13
6.2924265e-15
2.7872472e-13
5.9539658e-15
2.7447833e-13
5.6265228e-15
2.7046937e-13
5.3098698e-15
2.6668994e-13
5.0037881e-15
2.6313228e-13
4.7080667e-15
2.5978879e-13
4.4225008e-15
2.5665202e-13
4.1468904e-15
2.5371467e-13
3.8810398e-15
2.5096957e-13
3.6247565e-15
2.4840972e-13
3.3778508e-15
2.4602824e-13
3.1401352e-15
2.4381838e-13
2.9114241e-15
2.4177355e-13
2.6915332e-15
2.3988728e-13
2.4802796e-15
2.3815324e-13
2.2774814e-15
2.3656524e-13
2.0829575e-15
2.3511723e-13
1.8965275e-15
2.3380329e-13
1.7180116e-15
2.3261761e-13
1.5472309e-15
2.3155455e-13
1.3840065e-15
2.3060859e-13
1.2281602e-15
2.2977433e-13
1.0795144e-15
2.2904653e-13
9.3789162e-16
2.2842005e-13
8.0311487e-16
2.278899e-13
6.7500759e-16
2.2745123e-13
5.5339366e-16
2.270993e-13
4.3809742e-16
2.2682953e-13
3.2894385e-16
2.2663743e-13
2.2575844e-16
2.2651868e-13
1.2836728e-16
2.2646907e-13
3.6596926e-17
2.2648451e-13
-4.9724842e-17
2.2656106e-13
-1.3076895e-16
2.266949e-13
-2.0670569e-16
2.2688233e-13
-2.7770443e-16
2.2711977e-13
-3.4393318e-16
2.2740378e-13
-4.0555876e-16
2.2773104e-13
-4.6274634e-16
2.2809835e-13
-5.1565948e-16
2.2850263e-13
-5.6445987e-16
2.2894091e-13
-6.0930732e-16
2.2941035e-13
-6.5035963e-16
2.2990823e-13
-6.8777247e-16
2.3043194e-13
-7.2169918e-16
2.3097897e-13
-7.5229063e-16
2.3154694e-13
-7.7969503e-16
2.3213357e-13
-8.0405779e-16
2.3273668e-13
-8.2552155e-16
2.3335421e-13
-8.4422596e-16
2.3398418e-13
-8.6030773e-16
2.3462473e-13
-8.7390043e-16
2.352741e-13
-8.8513444e-16
2.359306e-13
-8.9413676e-16
2.3659265e-13
-9.0103089e-16
2.3725875e-13
-9.0593693e-16
2.3792751e-13
-9.0897152e-16
2.385976e-13
-9.1024784e-16
2.3926778e-13
-9.0987556e-16
2.3993689e-13
-9.079607e-16
2.4060385e-13
-9.0460559e-16
2.4126764e-13
-8.9990897e-16
2.4192732e-13
-8.9396609e-16
2.4258203e-13
-8.8686866e-16
2.4323095e-13
-8.7870494e-16
2.4387336e-13
-8.6955956e-16
2.4450856e-13
-8.5951373e-16
2.4513593e-13
-8.4864505e-16
2.4575491e-13
-8.3702792e-16
2.4636498e-13
-8.2473326e-16
2.4696568e-13
-8.1182899e-16
2.4755659e-13
-7.9837977e-16
2.4813734e-13
-7.8444727e-16
2.4870761e-13
-7.7009002e-16
2.4926712e-13
-7.5536352e-16
2.4981561e-13
-7.4032035e-16
2.5035289e-13
-7.2501038e-16
2.5087878e-13
-7.0948074e-16
2.5139315e-13
-6.9377605e-16
2.5189588e-13
-6.7793833e-16
2.523869e-13
-6.6200711e-16
2.5286616e-13
-6.4601949e-16
2.5333364e-13
-6.3001037e-16
2.5378933e-13
-6.1401244e-16
2.5423327e-13
-5.9805629e-16
2.546655e-13
-5.8217057e-16
2.5508609e-13
-5.6638189e-16
2.5549511e-13
-5.5071512e-16
2.5589268e-13
-5.3519323e-16
2.5627891e-13
-5.1983764e-16
2.5665393e-13
-5.0466805e-16
2.5701789e-13
-4.8970275e-16
2.5737096e-13
-4.749586e-16
2.577133e-13
-4.6045106e-16
2.5804509e-13
-4.461943e-16
2.5836652e-13
-4.3220121e-16
2.5867781e-13
-4.1848371e-16
2.5897915e-13
-4.050526e-16
2.5927076e-13
-3.9191791e-16
2.5955287e-13
-3.7908867e-16
2.5982571e-13
-3.665731e-16
2.6008951e-13
-3.5437862e-16
2.6034451e-13
-3.4251217e-16
2.6059096e-13
-3.309801e-16
2.6082912e-13
-3.1978845e-16
2.6105922e-13
-3.0894299e-16
2.6128154e-13
-2.9844935e-16
2.6149634e-13
-2.8831318e-16
2.6170389e-13
-2.7854051e-16
2.6190445e-13
-2.6913778e-16
2.6209831e-13
-2.6011249e-16
2.6228575e-13
-2.514733e-16
2.6246708e-13
-2.4323127e-16
2.6264258e-13
-2.3540027e-16
2.6281258e-13
-2.2799904e-16
2.6297742e-13
-2.2105272e-16
2.6313746e-13
-2.1459655e-16
2.632931e-13
-2.0868011e-16
2.6344479e-13
-2.0337541e-16
2.6359308e-13
-1.9878789e-16
2.637386e-13
-1.950754e-16
2.6388218e-13
-1.9247639e-16
2.6402492e-13
-1.9135719e-16
2.6416833e-13
-1.9228972e-16
2.6431455e-13
-1.9619455e-16
2.6446681e-13
-2.045915e-16
2.6462998e-13
-2.1998684e-16
2.648119e-13
-2.4702278e-16
2.650275e-13
-2.9721745e-16
2.6529938e-13
-3.8660775e-16
-4.5999706e-16
2.0340844e-11
3.7300578e-13
1.8132907e-11
4.8715568e-13
1.6704841e-11
1.0795584e-12
1.5501023e-11
1.4446645e-12
1.4363985e-11
1.5707665e-12
1.3278884e-11
1.5381841e-12
1.226741e-11
1.4263449e-12
1.1342668e-11
1.2898082e-12
1.0506443e-11
1.1547187e-12
9.7540956e-12
1.0308188e-12
9.0781835e-12
9.2057616e-13
8.4706148e-12
8.2361051e-13
7.9236589e-12
7.3861192e-13
7.4303043e-12
6.6410137e-13
6.9843256e-12
5.9869639e-13
6.5802424e-12
5.411818e-13
6.2132443e-12
4.9051106e-13
5.8791113e-12
4.457875e-13
5.5741404e-12
4.0624236e-13
5.2950801e-12
3.7121477e-13
5.0390732e-12
3.4013479e-13
4.8036073e-12
3.1250944e-13
4.5864714e-12
2.8791115e-13
4.3857191e-12
2.6596826e-13
4.1996353e-12
2.4635705e-13
4.0267083e-12
2.2879509e-13
3.8656048e-12
2.1303563e-13
3.7151485e-12
1.9886279e-13
3.5743008e-12
1.8608752e-13
3.4421444e-12
1.7454408e-13
3.3178688e-12
1.6408706e-13
3.2007575e-12
1.5458882e-13
3.0901769e-12
1.4593724e-13
2.9855662e-12
1.3803381e-13
2.8864286e-12
1.3079195e-13
2.7923243e-12
1.2413554e-13
2.7028629e-12
1.1799771e-13
2.6176982e-12
1.1231965e-13
2.5365223e-12
1.0704972e-13
2.4590615e-12
1.0214252e-13
2.3850718e-12
9.7558219e-14
2.3143356e-12
9.3261834e-14
2.2466581e-12
8.9222684e-14
2.1818651e-12
8.5413866e-14
2.1198e-12
8.1811805e-14
2.0603216e-12
7.8395858e-14
2.0033026e-12
7.5147956e-14
1.9486275e-12
7.2052295e-14
1.8961914e-12
6.9095062e-14
1.8458984e-12
6.6264187e-14
1.7976606e-12
6.3549131e-14
1.7513972e-12
6.0940694e-14
1.7070334e-12
5.8430846e-14
1.6644997e-12
5.6012583e-14
1.6237314e-12
5.3679787e-14
1.5846678e-12
5.142712e-14
1.5472515e-12
4.9249915e-14
1.5114287e-12
4.7144091e-14
1.4771479e-12
4.510607e-14
1.4443602e-12
4.3132711e-14
1.4130187e-12
4.1221247e-14
1.3830786e-12
3.9369235e-14
1.3544964e-12
3.7574505e-14
1.3272303e-12
3.5835126e-14
1.3012398e-12
3.4149364e-14
1.2764856e-12
3.2515655e-14
1.2529294e-12
3.0932581e-14
1.2305339e-12
2.9398842e-14
1.2092628e-12
2.7913241e-14
1.1890806e-12
2.6474666e-14
1.1699525e-12
2.5082074e-14
1.1518445e-12
2.3734482e-14
1.1347234e-12
2.2430955e-14
1.1185566e-12
2.1170597e-14
1.1033121e-12
1.9952546e-14
1.0889587e-12
1.8775965e-14
1.0754655e-12
1.7640039e-14
1.0628026e-12
1.6543972e-14
1.0509404e-12
1.5486981e-14
1.0398499e-12
1.4468293e-14
1.0295029e-12
1.3487146e-14
1.0198716e-12
1.2542786e-14
1.0109286e-12
1.1634463e-14
1.0026475e-12
1.0761432e-14
9.9500201e-13
9.9229533e-15
9.8796668e-13
9.1182894e-15
9.815165e-13
8.3467055e-15
9.7562704e-13
7.6074693e-15
9.7027442e-13
6.8998502e-15
9.6543531e-13
6.2231194e-15
9.6108692e-13
5.5765497e-15
9.5720702e-13
4.9594157e-15
9.5377392e-13
4.3709932e-15
9.5076647e-13
3.8105598e-15
9.4816409e-13
3.2773948e-15
9.459467e-13
2.7707792e-15
9.440948e-13
2.2899961e-15
9.4258941e-13
1.8343312e-15
9.414121e-13
1.4030723e-15
9.4054496e-13
9.9551033e-16
9.3997062e-13
6.1093923e-16
9.3967223e-13
2.4865662e-16
9.396335e-13
-9.2035785e-17
9.3983863e-13
-4.1183143e-16
9.4027234e-13
-7.1142013e-16
9.4091989e-13
-9.9148524e-16
9.4176704e-13
-1.2527048e-15
9.4280004e-13
-1.4957503e-15
9.4400567e-13
-1.7212862e-15
9.4537118e-13
-1.9299695e-15
9.4688432e-13
-2.1224494e-15
9.4853333e-13
-2.2993661e-15
9.5030691e-13
-2.4613512e-15
9.5219423e-13
-2.6090265e-15
9.5418495e-13
-2.7430035e-15
9.5626913e-13
-2.8638831e-15
9.5843733e-13
-2.9722547e-15
9.6068051e-13
-3.0686965e-15
9.6299005e-13
-3.1537743e-15
9.6535779e-13
-3.2280417e-15
9.6777593e-13
-3.2920396e-15
9.7023709e-13
-3.3462958e-15
9.7273427e-13
-3.3913245e-15
9.7526087e-13
-3.4276261e-15
9.7781062e-13
-3.4556874e-15
9.8037763e-13
-3.4759809e-15
9.8295635e-13
-3.4889651e-15
9.8554155e-13
-3.495084e-15
9.8812836e-13
-3.4947675e-15
9.9071218e-13
-3.4884306e-15
9.9328875e-13
-3.4764741e-15
9.9585407e-13
-3.4592845e-15
9.9840443e-13
-3.4372341e-15
1.0009364e-12
-3.410681e-15
1.0034468e-12
-3.3799691e-15
1.0059327e-12
-3.3454285e-15
1.0083915e-12
-3.3073754e-15
1.0108205e-12
-3.2661126e-15
1.0132177e-12
-3.2219295e-15
1.015581e-12
-3.1751028e-15
1.0179085e-12
-3.1258965e-15
1.0201986e-12
-3.0745619e-15
1.0224499e-12
-3.0213383e-15
1.024661e-12
-2.9664531e-15
1.0268308e-12
-2.9101218e-15
1.0289583e-12
-2.852549e-15
1.0310428e-12
-2.7939284e-15
1.0330834e-12
-2.7344432e-15
1.0350798e-12
-2.6742664e-15
1.0370313e-12
-2.6135609e-15
1.0389378e-12
-2.5524803e-15
1.0407989e-12
-2.491169e-15
1.0426147e-12
-2.4297623e-15
1.044385e-12
-2.3683876e-15
1.04611e-12
-2.3071635e-15
1.0477898e-12
-2.2462014e-15
1.0494247e-12
-2.1856049e-15
1.051015e-12
-2.1254706e-15
1.052561e-12
-2.0658882e-15
1.0540633e-12
-2.0069409e-15
1.0555223e-12
-1.9487059e-15
1.0569386e-12
-1.8912547e-15
1.0583128e-12
-1.834653e-15
1.0596456e-12
-1.7789614e-15
1.0609376e-12
-1.7242356e-15
1.0621897e-12
-1.6705267e-15
1.0634025e-12
-1.6178818e-15
1.0645769e-12
-1.5663441e-15
1.0657138e-12
-1.5159529e-15
1.0668139e-12
-1.4667445e-15
1.0678783e-12
-1.4187521e-15
1.0689078e-12
-1.3720063e-15
1.0699034e-12
-1.3265358e-15
1.0708659e-12
-1.2823675e-15
1.0717965e-12
-1.2395271e-15
1.0726961e-12
-1.19804e-15
1.0735657e-12
-1.1579314e-15
1.0744064e-12
-1.1192276e-15
1.0752192e-12
-1.0819573e-15
1.0760053e-12
-1.0461523e-15
1.0767657e-12
-1.0118506e-15
1.0775015e-12
-9.7909794e-16
1.0782141e-12
-9.4795299e-16
1.0789046e-12
-9.1849193e-16
1.0795743e-12
-8.9081742e-16
1.0802248e-12
-8.6507003e-16
1.0808576e-12
-8.4144713e-16
1.0814744e-12
-8.2022972e-16
1.0820775e-12
-8.0182476e-16
1.0826692e-12
-7.86828e-16
1.0832529e-12
-7.7612104e-16
1.0838325e-12
-7.710174e-16
1.0844137e-12
-7.734862e-16
1.085004e-12
-7.8648864e-16
1.0856139e-12
-8.1445551e-16
1.0862577e-12
-8.6385995e-16
1.0869547e-12
-9.4395162e-16
1.0877248e-12
-1.0673209e-15
1.0885774e-12
-1.2392457e-15
-1.4052297e-15
2.4117622e-11
6.4038339e-13
2.3158189e-11
1.4465888e-12
2.2195007e-11
2.0427403e-12
2.1238393e-11
2.4012788e-12
2.0256198e-11
2.5529618e-12
1.9239607e-11
2.5547749e-12
1.8205325e-11
2.4606266e-12
1.7180662e-11
2.3144719e-12
1.6189258e-11
2.1461229e-12
1.5246641e-11
1.9734359e-12
1.4361025e-11
1.8061918e-12
1.3535441e-11
1.6491941e-12
1.2769649e-11
1.5044047e-12
1.2061487e-11
1.3722624e-12
1.1407756e-11
1.2524277e-12
1.0804753e-11
1.1441845e-12
1.0248609e-11
1.0466551e-12
9.7354828e-12
9.5891405e-13
9.2616771e-12
8.8004804e-13
8.8237047e-12
8.0918723e-13
8.4183193e-12
7.4552019e-13
8.0425286e-12
6.8830009e-13
7.693594e-12
6.3684581e-13
7.369022e-12
5.905402e-13
7.0665524e-12
5.4882666e-13
6.7841424e-12
5.1120505e-13
6.519951e-12
4.7722712e-13
6.2723218e-12
4.4649198e-13
6.0397676e-12
4.1864173e-13
5.8209544e-12
3.9335721e-13
5.6146873e-12
3.7035419e-13
5.4198964e-12
3.4937974e-13
5.2356246e-12
3.3020901e-13
5.0610162e-12
3.1264225e-13
4.8953059e-12
2.9650218e-13
4.73781e-12
2.8163152e-13
4.5879168e-12
2.6789088e-13
4.4450796e-12
2.5515682e-13
4.3088093e-12
2.4332008e-13
4.1786677e-12
2.3228404e-13
4.0542626e-12
2.2196336e-13
3.9352418e-12
2.1228265e-13
3.821289e-12
2.0317545e-13
3.7121197e-12
1.9458317e-13
3.6074773e-12
1.8645421e-13
3.50713e-12
1.7874317e-13
3.4108678e-12
1.7141016e-13
3.3185e-12
1.6442012e-13
3.2298527e-12
1.5774229e-13
3.1447672e-12
1.5134971e-13
3.0630976e-12
1.4521873e-13
2.9847097e-12
1.3932866e-13
2.9094791e-12
1.3366136e-13
2.8372907e-12
1.2820098e-13
2.7680369e-12
1.2293364e-13
2.7016168e-12
1.178472e-13
2.6379357e-12
1.1293102e-13
2.576904e-12
1.0817579e-13
2.5184368e-12
1.0357333e-13
2.462453e-12
9.9116454e-14
2.4088754e-12
9.4798842e-14
2.3576297e-12
9.0614899e-14
2.3086446e-12
8.6559669e-14
2.261851e-12
8.2628737e-14
2.2171822e-12
7.8818152e-14
2.1745735e-12
7.5124358e-14
2.1339619e-12
7.1544133e-14
2.0952862e-12
6.8074535e-14
2.0584866e-12
6.471286e-14
2.0235047e-12
6.1456604e-14
1.9902833e-12
5.8303426e-14
1.9587667e-12
5.5251123e-14
1.9289e-12
5.2297607e-14
1.9006298e-12
4.944088e-14
1.8739033e-12
4.667902e-14
1.8486691e-12
4.4010169e-14
1.8248766e-12
4.1432517e-14
1.8024763e-12
3.8944293e-14
1.7814195e-12
3.6543758e-14
1.7616586e-12
3.42292e-14
1.7431468e-12
3.1998925e-14
1.7258383e-12
2.9851254e-14
1.7096883e-12
2.7784521e-14
1.6946527e-12
2.5797069e-14
1.6806884e-12
2.3887248e-14
1.6677532e-12
2.2053414e-14
1.655806e-12
2.0293926e-14
1.6448063e-12
1.8607149e-14
1.6347147e-12
1.699145e-14
1.6254927e-12
1.5445198e-14
1.6171024e-12
1.3966764e-14
1.6095073e-12
1.2554525e-14
1.6026715e-12
1.1206857e-14
1.5965599e-12
9.9221403e-15
1.5911385e-12
8.6987594e-15
1.5863742e-12
7.5351019e-15
1.5822346e-12
6.42956e-15
1.5786884e-12
5.3805313e-15
1.5757051e-12
4.3864192e-15
1.573255e-12
3.4456334e-15
1.5713093e-12
2.5565916e-15
1.5698402e-12
1.7177195e-15
1.5688208e-12
9.2745282e-16
1.5682247e-12
1.8423757e-16
1.5680267e-12
-5.1346846e-16
1.5682024e-12
-1.1671944e-15
1.5687282e-12
-1.7784574e-15
1.5695812e-12
-2.3487578e-15
1.5707395e-12
-2.8795801e-15
1.5721819e-12
-3.3723922e-15
1.5738881e-12
-3.8286427e-15
1.5758385e-12
-4.2497611e-15
1.5780143e-12
-4.6371557e-15
1.5803975e-12
-4.9922128e-15
1.5829708e-12
-5.3162958e-15
1.5857177e-12
-5.6107433e-15
1.5886223e-12
-5.8768691e-15
1.5916695e-12
-6.1159605e-15
1.594845e-12
-6.3292778e-15
1.598135e-12
-6.5180535e-15
1.6015265e-12
-6.6834918e-15
1.605007e-12
-6.8267672e-15
1.6085647e-12
-6.9490246e-15
1.6121884e-12
-7.0513781e-15
1.6158676e-12
-7.1349113e-15
1.6195923e-12
-7.2006763e-15
1.6233531e-12
-7.2496941e-15
1.6271409e-12
-7.2829538e-15
1.6309476e-12
-7.3014127e-15
1.6347651e-12
-7.3059963e-15
1.6385863e-12
-7.2975981e-15
1.6424041e-12
-7.2770801e-15
1.6462121e-12
-7.2452732e-15
1.6500044e-12
-7.2029765e-15
1.6537754e-12
-7.1509586e-15
1.6575199e-12
-7.0899571e-15
1.6612332e-12
-7.0206795e-15
1.6649109e-12
-6.9438038e-15
1.668549e-12
-6.8599786e-15
1.6721437e-12
-6.7698241e-15
1.6756917e-12
-6.6739327e-15
1.67919e-12
-6.5728689e-15
1.6826359e-12
-6.4671709e-15
1.6860268e-12
-6.3573502e-15
1.6893605e-12
-6.2438933e-15
1.6926352e-12
-6.1272618e-15
1.6958492e-12
-6.0078935e-15
1.699001e-12
-5.8862028e-15
1.7020893e-12
-5.7625817e-15
1.7051131e-12
-5.6374003e-15
1.7080716e-12
-5.5110078e-15
1.7109642e-12
-5.3837331e-15
1.7137903e-12
-5.2558854e-15
1.7165497e-12
-5.1277556e-15
1.7192421e-12
-4.9996162e-15
1.7218677e-12
-4.8717226e-15
1.7244264e-12
-4.7443136e-15
1.7269185e-12
-4.6176121e-15
1.7293445e-12
-4.4918261e-15
1.7317047e-12
-4.367149e-15
1.7339997e-12
-4.2437607e-15
1.7362303e-12
-4.1218279e-15
1.7383971e-12
-4.0015053e-15
1.7405011e-12
-3.8829356e-15
1.7425431e-12
-3.7662507e-15
1.7445242e-12
-3.6515723e-15
1.7464453e-12
-3.5390127e-15
1.7483076e-12
-3.4286754e-15
1.7501123e-12
-3.3206554e-15
1.7518606e-12
-3.2150404e-15
1.7535538e-12
-3.1119116e-15
1.7551931e-12
-3.011344e-15
1.75678e-12
-2.9134079e-15
1.7583158e-12
-2.8181697e-15
1.759802e-12
-2.7256927e-15
1.76124e-12
-2.6360386e-15
1.7626313e-12
-2.5492693e-15
1.7639775e-12
-2.4654481e-15
1.7652802e-12
-2.3846428e-15
1.766541e-12
-2.3069283e-15
1.7677615e-12
-2.232391e-15
1.7689436e-12
-2.1611344e-15
1.7700889e-12
-2.0932873e-15
1.7711994e-12
-2.0290145e-15
1.7722771e-12
-1.9685332e-15
1.7733242e-12
-1.9121358e-15
1.774343e-12
-1.8602241e-15
1.7753361e-12
-1.8133584e-15
1.7763066e-12
-1.7723299e-15
1.777258e-12
-1.738266e-15
1.7781947e-12
-1.7127809e-15
1.7791219e-12
-1.6981879e-15
1.7800462e-12
-1.697786e-15
1.7809759e-12
-1.7162176e-15
1.7819213e-12
-1.7598319e-15
1.7828942e-12
-1.8367999e-15
1.7839066e-12
-1.9563093e-15
1.7849646e-12
-2.125319e-15
1.7860625e-12
-2.3371473e-15
-2.5330573e-15
2.4476971e-11
5.4841231e-13
2.4425752e-11
1.4978082e-12
2.424539e-11
2.2231022e-12
2.3912736e-11
2.7339328e-12
2.3422514e-11
3.0431839e-12
2.2790411e-11
3.1868776e-12
2.2044166e-11
3.2068714e-12
2.121796e-11
3.1406782e-12
2.0345407e-11
3.0186763e-12
1.9455061e-11
2.8637813e-12
1.8568963e-11
2.6922902e-12
1.7702911e-11
2.5152458e-12
1.6867484e-11
2.3398314e-12
1.6069221e-11
2.1705259e-12
1.5311685e-11
2.0099639e-12
1.4596324e-11
1.8595455e-12
1.3923123e-11
1.7198559e-12
1.3291085e-11
1.5909515e-12
1.2698581e-11
1.4725523e-12
1.2143596e-11
1.3641722e-12
1.1623909e-11
1.2652071e-12
1.1137215e-11
1.1749943e-12
1.0681209e-11
1.0928517e-12
1.0253645e-11
1.018104e-12
9.8523728e-12
9.500993e-13
9.4753584e-12
8.8821948e-13
9.1206999e-12
8.3188564e-13
8.7866309e-12
7.8056096e-13
8.4715214e-12
7.3375125e-13
8.1738743e-12
6.9100426e-13
7.8923205e-12
6.5190805e-13
7.6256114e-12
6.1608884e-13
7.3726118e-12
5.8320856e-13
7.1322917e-12
5.5296234e-13
6.9037181e-12
5.2507584e-13
6.6860468e-12
4.9930279e-13
6.4785152e-12
4.754225e-13
6.2804345e-12
4.5323756e-13
6.0911829e-12
4.3257168e-13
5.9101992e-12
4.1326768e-13
5.736977e-12
3.9518561e-13
5.5710586e-12
3.7820104e-13
5.4120306e-12
3.6220349e-13
5.2595187e-12
3.47095e-13
5.1131841e-12
3.3278881e-13
4.9727191e-12
3.1920819e-13
4.8378439e-12
3.0628536e-13
4.7083035e-12
2.9396048e-13
4.583865e-12
2.8218084e-13
4.4643147e-12
2.7090003e-13
4.3494562e-12
2.600772e-13
4.2391084e-12
2.4967647e-13
4.1331034e-12
2.3966634e-13
4.0312853e-12
2.3001914e-13
3.9335083e-12
2.2071062e-13
3.839636e-12
2.117195e-13
3.7495399e-12
2.0302712e-13
3.6630986e-12
1.946171e-13
3.5801968e-12
1.8647505e-13
3.500725e-12
1.7858834e-13
3.424578e-12
1.7094581e-13
3.3516553e-12
1.6353761e-13
3.2818599e-12
1.5635504e-13
3.2150983e-12
1.4939032e-13
3.15128e-12
1.4263652e-13
3.0903169e-12
1.3608741e-13
3.0321237e-12
1.2973735e-13
2.976617e-12
1.2358122e-13
2.9237156e-12
1.1761431e-13
2.8733399e-12
1.1183226e-13
2.8254123e-12
1.0623103e-13
2.7798566e-12
1.008068e-13
2.7365983e-12
9.5555965e-14
2.6955641e-12
9.0475081e-14
2.6566823e-12
8.5560839e-14
2.6198824e-12
8.0810034e-14
2.5850954e-12
7.6219549e-14
2.5522533e-12
7.1786334e-14
2.5212897e-12
6.7507392e-14
2.4921391e-12
6.3379764e-14
2.4647375e-12
5.9400523e-14
2.439022e-12
5.5566767e-14
2.4149309e-12
5.1875607e-14
2.3924038e-12
4.8324167e-14
2.3713815e-12
4.490958e-14
2.3518059e-12
4.1628985e-14
2.3336203e-12
3.8479522e-14
2.3167691e-12
3.5458336e-14
2.301198e-12
3.2562571e-14
2.2868538e-12
2.9789376e-14
2.2736847e-12
2.7135899e-14
2.2616399e-12
2.459929e-14
2.2506701e-12
2.2176702e-14
2.2407269e-12
1.9865292e-14
2.2317635e-12
1.766222e-14
2.2237339e-12
1.5564652e-14
2.2165937e-12
1.3569763e-14
2.2102995e-12
1.1674733e-14
2.2048092e-12
9.8767553e-15
2.2000818e-12
8.1730322e-15
2.1960776e-12
6.5607808e-15
2.1927581e-12
5.0372327e-15
2.1900859e-12
3.5996371e-15
2.1880249e-12
2.2452618e-15
2.18654e-12
9.7139656e-16
2.1855975e-12
-2.2464708e-16
2.1851645e-12
-1.34553e-15
2.1852097e-12
-2.3938877e-15
2.1857024e-12
-3.3723259e-15
2.1866134e-12
-4.2834195e-15
2.1879145e-12
-5.1297096e-15
2.1895785e-12
-5.9137018e-15
2.1915792e-12
-6.6378648e-15
2.1938916e-12
-7.3046276e-15
2.1964917e-12
-7.916378e-15
2.1993564e-12
-8.4754605e-15
2.2024637e-12
-8.9841749e-15
2.2057925e-12
-9.4447747e-15
2.2093227e-12
-9.8594656e-15
2.213035e-12
-1.0230404e-14
2.2169112e-12
-1.0559697e-14
2.2209339e-12
-1.0849399e-14
2.2250864e-12
-1.1101513e-14
2.229353e-12
-1.1317989e-14
2.2337188e-12
-1.1500721e-14
2.2381697e-12
-1.1651552e-14
2.2426922e-12
-1.1772268e-14
2.2472739e-12
-1.18646e-14
2.2519027e-12
-1.1930225e-14
2.2565675e-12
-1.1970762e-14
2.2612576e-12
-1.1987778e-14
2.2659633e-12
-1.1982784e-14
2.2706753e-12
-1.1957235e-14
2.2753849e-12
-1.1912535e-14
2.2800839e-12
-1.1850032e-14
2.284765e-12
-1.1771021e-14
2.2894211e-12
-1.1676746e-14
2.2940457e-12
-1.15684e-14
2.2986328e-12
-1.1447123e-14
2.303177e-12
-1.1314009e-14
2.3076731e-12
-1.1170101e-14
2.3121167e-12
-1.1016396e-14
2.3165033e-12
-1.0853844e-14
2.3208293e-12
-1.0683349e-14
2.3250912e-12
-1.0505774e-14
2.3292859e-12
-1.0321935e-14
2.3334106e-12
-1.013261e-14
2.3374629e-12
-9.9385359e-15
2.3414408e-12
-9.7404091e-15
2.3453423e-12
-9.5388896e-15
2.3491659e-12
-9.3346007e-15
2.3529103e-12
-9.1281304e-15
2.3565744e-12
-8.920033e-15
2.3601575e-12
-8.71083e-15
2.3636589e-12
-8.5010118e-15
2.3670782e-12
-8.2910386e-15
2.3704152e-12
-8.0813416e-15
2.3736699e-12
-7.8723246e-15
2.3768425e-12
-7.664365e-15
2.3799331e-12
-7.457815e-15
2.3829424e-12
-7.253003e-15
2.3858708e-12
-7.0502344e-15
2.3887191e-12
-6.849793e-15
2.3914881e-12
-6.6519423e-15
2.3941787e-12
-6.4569265e-15
2.3967921e-12
-6.2649719e-15
2.3993294e-12
-6.0762875e-15
2.4017918e-12
-5.8910671e-15
2.4041806e-12
-5.7094897e-15
2.4064973e-12
-5.5317208e-15
2.4087433e-12
-5.3579142e-15
2.4109202e-12
-5.1882129e-15
2.4130295e-12
-5.022751e-15
2.415073e-12
-4.861655e-15
2.4170524e-12
-4.7050455e-15
2.4189694e-12
-4.5530402e-15
2.4208259e-12
-4.4057552e-15
2.4226237e-12
-4.2633092e-15
2.4243649e-12
-4.1258262e-15
2.4260514e-12
-3.9934419e-15
2.4276853e-12
-3.8663088e-15
2.4292688e-12
-3.7446063e-15
2.4308041e-12
-3.628552e-15
2.4322935e-12
-3.5184187e-15
2.4337395e-12
-3.4145574e-15
2.4351448e-12
-3.3174308e-15
2.4365122e-12
-3.2276594e-15
2.437845e-12
-3.146088e-15
2.4391465e-12
-3.0738775e-15
2.4404209e-12
-3.0126337e-15
2.4416727e-12
-2.9645781e-15
2.4429073e-12
-2.932769e-15
2.4441308e-12
-2.9213584e-15
2.4453504e-12
-2.9358337e-15
2.4465737e-12
-2.9830903e-15
2.4478079e-12
-3.0709603e-15
2.4490579e-12
-3.2063207e-15
2.4503228e-12
-3.390282e-15
2.4515935e-12
-3.6078315e-15
-3.8031238e-15
2.4473248e-11
4.6016385e-13
2.4641507e-11
1.3295501e-12
2.4781359e-11
2.08325e-12
2.482378e-11
2.6915114e-12
2.4727684e-11
3.1392799e-12
2.4479854e-11
3.4347073e-12
2.4087571e-11
3.5991551e-12
2.3570669e-11
3.65758e-12
2.295489e-11
3.6344549e-12
2.2266988e-11
3.5516832e-12
2.1531684e-11
3.4275947e-12
2.0770125e-11
3.276805e-12
1.9999411e-11
3.1105446e-12
1.9232764e-11
2.9371738e-12
1.8479995e-11
2.762733e-12
1.7748089e-11
2.5914513e-12
1.7041766e-11
2.4261789e-12
1.6363981e-11
2.2687363e-12
1.5716346e-11
2.1201873e-12
1.509947e-11
1.9810485e-12
1.4513229e-11
1.8514481e-12
1.3956979e-11
1.7312442e-12
1.3429718e-11
1.6201128e-12
1.2930209e-11
1.5176128e-12
1.2457075e-11
1.4232329e-12
1.2008869e-11
1.3364257e-12
1.1584123e-11
1.2566322e-12
1.1181385e-11
1.1832989e-12
1.0799247e-11
1.1158888e-12
1.0436361e-11
1.0538898e-12
1.0091451e-11
9.9681872e-13