/*--------------------------------*- C++ -*----------------------------------*\
| =========                 |                                                 |
| \\      /  F ield         | OpenFOAM: The Open Source CFD Toolbox           |
|  \\    /   O peration     | Version:  2406                                  |
|   \\  /    A nd           | Website:  www.openfoam.com                      |
|    \\/     M anipulation  |                                                 |
\*---------------------------------------------------------------------------*/
FoamFile
{
    version     2.0;
    format      ascii;
    arch        "LSB;label=32;scalar=64";
    class       volScalarField;
    location    "1460";
    object      T;
}
// * * * * * * * * * * * * * * * * * * * * * * * * * * * * * * * * * * * * * //

dimensions      [0 0 0 0 0 0 0];

internalField   nonuniform List<scalar> 
10200
(
1
1
1
1
1
1
1
1
1
1
1
1
1
1
1
1
1
1
1
1
1
1
1
1
1
1
1
1
1
1
1
1
1
1
1
1
1
1
1
1
1
1
1
1
1
1
1
1
1
1
1
1
1
1
1
1
1
1
1
1
1
1
1
1
1
1
1
1
1
1
1
1
1
1
1
1
1
1
1
1
1
1
1
1
1
1
1
1
1
1
1
1
1
1
1
1
1
1
1
1
1
1
1
1
1
1
1
1
1
1
1
1
1
1
1
1
1
1
1
1
1
1
1
1
1
1
1
1
1
1
1
1
1
1
1
1
1
1
1
1
1
1
1
1
1
1
1
1
1
1
1
1
1
1
1
1
1
1
1
1
1
1
1
1
1
1
1
1
1
1
1
1
1
1
1
1
1
1
1
1
1
1
1
1
1
1
1
1
1
1
1
1
1
1
1
1
1
1
1
1
1
1
1
1
1
1
1
1
1
1
1
1
1
1
1
1
1
1
1
1
1
1
1
1
1
1
1
1
1
1
1
1
1
1
1
1
1
1
1
1
1
1
1
1
1
1
1
1
1
1
1
1
1
1
1
1
1
1
1
1
1
1
1
1
1
1
1
1
1
1
1
1
1
1
1
1
1
1
1
1
1
1
1
1
1
1
1
1
1
1
1
1
1
1
1
1
1
1
1
1
1
1
1
1
1
1
1
1
1
1
1
1
1
1
1
1
1
1
1
1
1
1
1
1
1
1
1
1
1
1
1
1
1
1
1
1
1
1
1
1
1
1
1
1
1
1
1
1
1
1
1
1
1
1
1
1
1
1
1
1
1
1
1
1
1
1
1
1
1
1
1
1
1
1
1
1
1
1
1
1
1
1
1
1
1
1
1
1
1
1
1
1
1
1
1
1
1
1
1
1
1
1
1
1
1
1
1
1
1
1
1
1
1
1
1
1
1
1
1
1
1
1
1
1
1
1
1
1
1
1
1
1
1
1
1
1
1
1
1
1
1
1
1
1
1
1
1
1
1
1
1
1
1
1
1
1
1
1
1
1
1
1
1
1
1
1
1
1
1
1
1
1
1
1
1
1
1
1
1
1
1
1
1
1
1
1
1
1
1
1
1
1
1
1
1
1
1
1
1
1
1
1
1
1
1
1
1
1
1
1
1
1
1
1
1
1
1
1
1
1
1
1
1
1
1
1
1
1
1
1
1
1
1
1
1
1
1
1
1
1
1
1
1
1
1
1
1
1
1
1
1
1
1
1
1
1
1
1
1
1
1
1
1
1
1
1
1
1
1
1
1
1
1
1
1
1
1
1
1
1
1
1
1
1
1
1
1
1
1
1
1
1
1
1
1
1
1
1
1
1
1
1
1
1
1
1
1
1
1
1
1
1
1
1
1
1
1
1
1
1
1
1
1
1
1
1
1
1
1
1
1
1
1
1
1
1
1
1
1
1
1
1
1
1
1
1
1
1
1
1
1
1
1
1
1
1
1
1
1
1
1
1
1
1
1
1
1
1
1
1
1
1
1
1
1
1
1
1
1
1
1
1
1
1
1
1
1
1
1
1
1
1
1
1
1
1
1
1
1
1
1
1
1
1
1
1
1
1
1
1
1
1
1
1
1
1
1
1
1
1
1
1
1
1
1
1
1
1
1
1
1
1
1
1
1
1
1
1
1
1
1
1
1
1
1
1
1
1
1
1
1
1
1
1
1
1
1
1
1
1
1
1
1
1
1
1
1
1
1
1
1
1
1
1
1
1
1
1
1
1
1
1
1
1
1
1
1
1
1
1
1
1
1
1
1
1
1
1
1
1
1
1
1
1
1
1
1
1
1
1
1
1
1
1
1
1
1
1
1
1
1
1
1
1
1
1
1
1
1
1
1
1
1
1
1
1
1
1
1
1
1
1
1
1
1
1
1
1
1
1
1
1
1
1
1
1
1
1
1
1
1
1
1
1
1
1
1
1
1
1
1
1
1
1
1
1
1
1
1
1
1
1
1
1
1
1
1
1
1
1
1
1
1
1
1
1
1
1
1
1
1
1
1
1
1
1
1
1
1
1
1
1
1
1
1
1
1
1
1
1
1
1
1
1
1
1
1
1
1
1
1
1
1
1
1
1
1
1
1
1
1
1
1
1
1
1
1
1
1
1
1
1
1
1
1
1
1
1
1
1
1
1
1
1
1
1
1
1
1
1
1
1
1
1
1
1
1
1
1
1
1
1
1
1
1
1
1
1
1
1
1
1
1
1
1
1
1
1
1
1
1
1
1
1
1
1
1
1
1
1
1
1
1
1
1
1
1
1
1
1
1
1
1
1
1
1
1
1
1
1
1
1
1
1
1
1
1
1
1
1
1
1
1
1
1
1
1
1
1
1
1
1
1
1
1
1
1
1
1
1
1
1
1
1
1
1
1
1
1
1
1
1
1
1
1
1
1
1
1
1
1
1
1
1
1
1
1
1
1
1
1
1
1
1
1
1
1
1
1
1
1
1
1
1
1
1
1
1
1
1
1
1
1
1
1
1
1
1
1
1
1
1
1
1
1
1
1
1
1
1
1
1
1
1
1
1
1
1
1
1
1
1
1
1
1
1
1
1
1
1
1
1
1
1
1
1
1
1
1
1
1
1
1
1
1
1
1
1
1
1
1
1
1
1
1
1
1
1
1
1
1
1
1
1
1
1
1
1
1
1
1
1
1
1
1
1
1
1
1
1
1
1
1
1
1
1
1
1
1
1
1
1
1
1
1
1
1
1
1
1
1
1
1
1
1
1
1
1
1
1
1
1
1
1
1
1
1
1
1
1
1
1
1
1
1
1
1
1
1
1
1
1
1
1
1
1
1
1
1
1
1
1
1
1
1
1
1
1
1
1
1
1
1
1
1
1
1
1
1
1
1
1
1
1
1
1
1
1
1
1
1
1
1
1
1
1
1
1
1
1
1
1
1
1
1
1
1
1
1
1
1
1
1
1
1
1
1
1
1
1
1
1
1
1
1
1
1
1
1
1
1
1
1
1
1
1
1
1
1
1
1
1
1
1
1
1
1
1
1
1
1
1
1
1
1
1
1
1
1
1
1
1
1
1
1
1
1
1
1
1
1
1
1
1
1
1
1
1
1
1
1
1
1
1
1
1
1
1
1
1
1
1
1
1
1
1
1
1
1
1
1
1
1
1
1
1
1
1
1
1
1
1
1
1
1
1
1
1
1
1
1
1
1
1
1
1
1
1
1
1
1
1
1
1
1
1
1
1
1
1
1
1
1
1
1
1
1
1
1
1
1
1
1
1
1
1
1
1
1
1
1
1
1
1
1
1
1
1
1
1
1
1
1
1
1
1
1
1
1
1
1
1
1
1
1
1
1
1
1
1
1
1
1
1
1
1
1
1
1
1
1
1
1
1
1
1
1
1
1
1
1
1
1
1
1
1
1
1
1
1
1
1
1
1
1
1
1
1
1
1
1
1
1
1
1
1
1
1
1
1
1
1
1
1
1
1
1
1
1
1
1
1
1
1
1
1
1
1
1
1
1
1
1
1
1
1
1
1
1
1
1
1
1
1
1
1
1
1
1
1
1
1
1
1
1
1
1
1
1
1
1
1
1
1
1
1
1
1
1
1
1
1
1
1
1
1
1
1
1
1
1
1
1
1
1
1
1
1
1
1
1
1
1
1
1
1
1
1
1
1
1
1
1
1
1
1
1
1
1
1
1
1
1
1
1
1
1
1
1
1
1
1
1
1
1
1
1
1
1
1
1
1
1
1
1
1
1
1
1
1
1
1
1
1
1
1
1
1
1
1
1
1
1
1
1
1
1
1
1
1
1
1
1
1
1
1
1
1
1
1
1
1
1
1
1
1
1
1
1
1
1
1
1
1
1
1
1
1
1
1
1
1
1
1
1
1
1
1
1
1
1
1
1
1
1
1
1
1
1
1
1
1
1
1
1
1
1
1
1
1
1
1
1
1
1
1
1
1
1
1
1
1
1
1
1
1
1
1
1
1
1
1
1
1
1
1
1
1
1
1
1
1
1
1
1
1
1
1
1
1
1
1
1
1
1
1
1
1
1
1
1
1
1
1
1
1
1
1
1
1
1
1
1
1
1
1
1
1
1
1
1
1
1
1
1
1
1
1
1
1
1
1
1
1
1
1
1
1
1
1
1
1
1
1
1
1
1
1
1
1
1
1
1
1
1
1
1
1
1
1
1
1
1
1
1
1
1
1
1
1
1
1
1
1
1
1
1
1
1
1
1
1
1
1
1
1
1
1
1
1
1
1
1
1
1
1
1
1
1
1
1
1
1
1
1
1
1
1
1
1
1
1
1
1
1
1
1
1
1
1
1
1
1
1
1
1
1
1
1
1
1
1
1
1
1
1
1
1
1
1
1
1
1
1
1
1
1
1
1
1
1
1
1
1
1
1
1
1
1
1
1
1
1
1
1
1
1
1
1
1
1
1
1
1
1
1
1
1
1
1
1
1
1
1
1
1
1
1
1
1
1
1
1
0.99999999
0.99999999
0.99999999
0.99999999
0.99999999
0.99999999
0.99999999
1
1
1
1
1
1
1
1
1
1
1
1
1
1
1
1
1
1
1
1
1
1
1
1
1
1
1
1
1
1
1
1
1
1
1
1
1
1
1
1
1
1
1
1
1
1
1
1
1
1
1
1
1
1
1
1
1
1
1
1
1
1
1
1
1
1
1
1
1
1
1
1
1
1
1
1
1
1
1
1
1
1
1
1
1
1
1
1
1
1
1
1
1
1
1
1
1
1
1
1
1
1
1
1
1
1
1
1
1
1
1
1
1
1
1
1
1
1
1
1
1
1
1
1
1
1
1
1
1
1
1
1
1
1
1
1
1
1
1
1
1
1
0.99999999
0.99999999
0.99999999
0.99999999
0.99999999
0.99999999
0.99999999
0.99999999
0.99999999
0.99999999
0.99999999
0.99999999
0.99999999
0.99999999
0.99999999
0.99999998
0.99999998
0.99999998
0.99999998
0.99999998
0.99999998
0.99999998
0.99999998
0.99999998
0.99999998
0.99999997
0.99999997
0.99999997
0.99999997
0.99999997
0.99999997
0.99999997
0.99999997
0.99999997
0.99999997
0.99999997
0.99999996
0.99999996
0.99999996
0.99999996
0.99999996
0.99999996
0.99999996
0.99999996
0.99999996
0.99999996
0.99999996
0.99999996
0.99999995
0.99999995
0.99999995
0.99999995
0.99999995
0.99999995
0.99999995
0.99999995
0.99999995
0.99999995
0.99999154
0.99998738
0.9999855
0.99998512
0.99998564
0.99998666
0.99998794
0.99998929
0.99999062
0.99999186
0.99999299
0.999994
0.99999488
0.99999563
0.99999628
0.99999683
0.9999973
0.9999977
0.99999803
0.99999831
0.99999855
0.99999875
0.99999892
0.99999907
0.99999919
0.99999929
0.99999938
0.99999946
0.99999953
0.99999958
0.99999963
0.99999968
0.99999971
0.99999975
0.99999977
0.9999998
0.99999982
0.99999984
0.99999986
0.99999987
0.99999988
0.9999999
0.99999991
0.99999992
0.99999992
0.99999993
0.99999994
0.99999994
0.99999995
0.99999995
0.99999996
0.99999996
0.99999996
0.99999997
0.99999997
0.99999997
0.99999998
0.99999998
0.99999998
0.99999998
0.99999998
0.99999998
0.99999998
0.99999999
0.99999999
0.99999999
0.99999999
0.99999999
0.99999999
0.99999999
0.99999999
0.99999999
0.99999999
0.99999999
0.99999999
0.99999999
0.99999999
0.99999999
0.99999999
0.99999999
0.99999999
0.99999999
0.99999999
1
1
1
1
1
1
1
1
1
1
1
1
1
1
1
1
1
1
1
1
1
1
1
1
1
1
1
1
1
1
1
1
1
1
1
1
0.99999999
0.99999999
0.99999999
0.99999999
0.99999999
0.99999999
0.99999999
0.99999999
0.99999998
0.99999998
0.99999998
0.99999998
0.99999997
0.99999997
0.99999997
0.99999996
0.99999996
0.99999996
0.99999995
0.99999995
0.99999995
0.99999994
0.99999994
0.99999993
0.99999993
0.99999992
0.99999992
0.99999991
0.99999991
0.9999999
0.9999999
0.99999989
0.99999988
0.99999988
0.99999987
0.99999987
0.99999986
0.99999985
0.99999985
0.99999984
0.99999984
0.99999983
0.99999982
0.99999982
0.99999981
0.99999981
0.9999998
0.99999979
0.99999979
0.99999978
0.99999978
0.99999977
0.99999976
0.99999976
0.99999975
0.99999975
0.99999974
0.99999974
0.99999973
0.99999972
0.99999972
0.99999971
0.99999971
0.9999997
0.9999997
0.99999969
0.99999969
0.99999968
0.99999968
0.99999968
0.99999967
0.99999967
0.99999966
0.99999966
0.99999965
0.99999965
0.99999964
0.99999964
0.99999964
0.99999963
0.99999963
0.790507
0.88615447
0.92257671
0.9434542
0.95726853
0.96711463
0.97443683
0.98001011
0.98430584
0.98764016
0.99023898
0.99227007
0.99386076
0.99510898
0.99609044
0.99686388
0.99747495
0.99795909
0.99834387
0.99865069
0.99889622
0.99909344
0.99925246
0.99938117
0.99948577
0.99957111
0.999641
0.99969847
0.9997459
0.99978519
0.99981786
0.99984511
0.99986792
0.99988707
0.99990321
0.99991684
0.99992839
0.9999382
0.99994655
0.99995368
0.99995978
0.99996502
0.99996951
0.99997339
0.99997673
0.99997961
0.99998211
0.99998428
0.99998616
0.99998779
0.99998922
0.99999046
0.99999155
0.9999925
0.99999333
0.99999406
0.9999947
0.99999526
0.99999576
0.99999619
0.99999658
0.99999692
0.99999722
0.99999749
0.99999772
0.99999793
0.99999812
0.99999828
0.99999843
0.99999856
0.99999868
0.99999879
0.99999888
0.99999897
0.99999904
0.99999911
0.99999917
0.99999923
0.99999928
0.99999932
0.99999936
0.9999994
0.99999943
0.99999946
0.99999949
0.99999951
0.99999954
0.99999956
0.99999957
0.99999959
0.99999961
0.99999962
0.99999963
0.99999964
0.99999965
0.99999966
0.99999967
0.99999968
0.99999969
0.99999969
0.9999997
0.9999997
0.99999971
0.99999971
0.99999972
0.99999972
0.99999972
0.99999972
0.99999973
0.99999973
0.99999973
0.99999973
0.99999973
0.99999973
0.99999973
0.99999973
0.99999973
0.99999973
0.99999973
0.99999973
0.99999972
0.99999972
0.99999971
0.9999997
0.99999969
0.99999968
0.99999967
0.99999966
0.99999965
0.99999963
0.99999961
0.9999996
0.99999958
0.99999956
0.99999954
0.99999952
0.9999995
0.99999948
0.99999946
0.99999943
0.99999941
0.99999939
0.99999936
0.99999934
0.99999931
0.99999928
0.99999926
0.99999923
0.9999992
0.99999917
0.99999914
0.99999911
0.99999909
0.99999906
0.99999903
0.999999
0.99999897
0.99999894
0.99999891
0.99999888
0.99999885
0.99999882
0.99999879
0.99999877
0.99999874
0.99999871
0.99999868
0.99999865
0.99999863
0.9999986
0.99999857
0.99999855
0.99999852
0.99999849
0.99999847
0.99999844
0.99999842
0.9999984
0.99999837
0.99999835
0.99999833
0.99999831
0.99999828
0.99999826
0.99999824
0.99999822
0.9999982
0.99999818
0.99999816
0.99999814
0.99999812
0.9999981
0.99999809
0.99999807
0.99999805
0.99999803
0.99999801
0.999998
0.99999798
0.99999796
0.00068463714
0.29177414
0.53638051
0.67293835
0.75622984
0.81285284
0.85377985
0.88448989
0.90807645
0.92645994
0.9409249
0.95237951
0.96149152
0.96876526
0.97458844
0.97926263
0.98302412
0.98605897
0.98851408
0.99050574
0.99212614
0.99344846
0.99453088
0.99541975
0.99615202
0.99675724
0.99725907
0.99767651
0.99802486
0.99831645
0.99856127
0.99876743
0.99894154
0.99908898
0.99921417
0.99932074
0.99941168
0.99948946
0.99955614
0.99961342
0.99966272
0.99970525
0.99974199
0.9997738
0.99980137
0.99982531
0.99984614
0.99986428
0.9998801
0.99989391
0.999906
0.99991658
0.99992585
0.99993399
0.99994115
0.99994745
0.99995299
0.99995788
0.9999622
0.99996601
0.99996939
0.99997238
0.99997503
0.99997739
0.99997948
0.99998134
0.999983
0.99998448
0.9999858
0.99998699
0.99998804
0.99998899
0.99998984
0.9999906
0.99999129
0.9999919
0.99999246
0.99999296
0.99999341
0.99999382
0.99999419
0.99999453
0.99999483
0.99999511
0.99999536
0.99999559
0.99999579
0.99999598
0.99999615
0.99999631
0.99999645
0.99999658
0.99999669
0.9999968
0.9999969
0.99999699
0.99999707
0.99999714
0.99999721
0.99999727
0.99999732
0.99999737
0.99999741
0.99999745
0.99999749
0.99999752
0.99999755
0.99999757
0.99999759
0.99999761
0.99999762
0.99999764
0.99999765
0.99999765
0.99999766
0.99999766
0.99999767
0.99999767
0.99999766
0.99999766
0.99999766
0.99999764
0.99999763
0.9999976
0.99999757
0.99999753
0.99999749
0.99999744
0.99999739
0.99999734
0.99999728
0.99999721
0.99999714
0.99999707
0.999997
0.99999692
0.99999684
0.99999676
0.99999667
0.99999659
0.99999649
0.9999964
0.99999631
0.99999621
0.99999611
0.99999602
0.99999592
0.99999581
0.99999571
0.99999561
0.9999955
0.9999954
0.9999953
0.99999519
0.99999509
0.99999498
0.99999488
0.99999477
0.99999467
0.99999456
0.99999446
0.99999436
0.99999426
0.99999416
0.99999406
0.99999396
0.99999386
0.99999377
0.99999367
0.99999358
0.99999349
0.9999934
0.99999331
0.99999322
0.99999314
0.99999305
0.99999297
0.99999289
0.99999281
0.99999273
0.99999265
0.99999258
0.99999251
0.99999243
0.99999236
0.99999229
0.99999223
0.99999216
0.99999209
0.99999203
0.99999197
0.9999919
0.99999184
0.99999178
0.99999172
0.99999166
0.9999916
0.99999155
0.99999149
0.99999143
8.4850854e-06
0.00015000073
0.00036385197
0.12920056
0.2950466
0.43459462
0.54448209
0.63118139
0.70008278
0.75522394
0.79960386
0.83548121
0.86458621
0.88826439
0.90757468
0.92335782
0.93628551
0.9468968
0.95562555
0.96282178
0.96876831
0.97369395
0.97778407
0.98118903
0.98403093
0.9864091
0.98840444
0.99008297
0.99149866
0.99269576
0.99371056
0.99457295
0.99530759
0.99593485
0.99647163
0.996932
0.99732764
0.99766834
0.9979623
0.99821639
0.99843641
0.99862724
0.99879303
0.99893727
0.99906296
0.99917263
0.99926846
0.9993523
0.99942574
0.99949015
0.9995467
0.99959642
0.99964017
0.99967872
0.99971271
0.99974272
0.99976925
0.99979272
0.9998135
0.99983192
0.99984827
0.9998628
0.99987571
0.99988721
0.99989746
0.9999066
0.99991476
0.99992206
0.99992859
0.99993444
0.99993968
0.99994439
0.99994863
0.99995244
0.99995587
0.99995896
0.99996175
0.99996428
0.99996656
0.99996862
0.99997049
0.99997219
0.99997373
0.99997513
0.99997641
0.99997756
0.99997862
0.99997958
0.99998045
0.99998125
0.99998198
0.99998264
0.99998325
0.9999838
0.99998431
0.99998477
0.99998519
0.99998557
0.99998592
0.99998623
0.99998652
0.99998678
0.99998701
0.99998722
0.99998742
0.99998759
0.99998774
0.99998787
0.99998799
0.99998809
0.99998818
0.99998826
0.99998833
0.99998838
0.99998842
0.99998846
0.99998848
0.9999885
0.9999885
0.9999885
0.9999885
0.9999885
0.99998847
0.99998842
0.99998835
0.99998826
0.99998815
0.99998803
0.99998789
0.99998773
0.99998757
0.99998738
0.99998719
0.99998698
0.99998677
0.99998654
0.99998631
0.99998606
0.99998581
0.99998555
0.99998529
0.99998502
0.99998474
0.99998446
0.99998417
0.99998388
0.99998359
0.99998329
0.99998299
0.99998269
0.99998239
0.99998209
0.99998178
0.99998148
0.99998118
0.99998087
0.99998057
0.99998027
0.99997997
0.99997968
0.99997938
0.99997909
0.9999788
0.99997851
0.99997823
0.99997795
0.99997768
0.9999774
0.99997714
0.99997687
0.99997661
0.99997636
0.99997611
0.99997586
0.99997562
0.99997538
0.99997515
0.99997492
0.99997469
0.99997447
0.99997426
0.99997405
0.99997384
0.99997364
0.99997344
0.99997325
0.99997306
0.99997287
0.99997269
0.99997251
0.99997234
0.99997216
0.99997199
0.99997183
0.99997166
0.9999715
0.99997134
0.99997118
0.99997102
0.99997087
1.5808314e-08
7.2790459e-08
2.0644832e-07
5.9106617e-05
0.00017553468
0.062190258
0.16784421
0.2776222
0.38003317
0.47131678
0.550799
0.61909869
0.67732716
0.72672619
0.76850551
0.80377391
0.83351497
0.85858431
0.87971695
0.8975389
0.91258009
0.92528718
0.93603541
0.94513938
0.9528624
0.95942465
0.96501016
0.96977275
0.97384103
0.97732259
0.98030751
0.98287132
0.9850774
0.98697904
0.98862109
0.99004139
0.99127191
0.9923397
0.9932677
0.99407542
0.99477944
0.99539391
0.99593095
0.99640089
0.99681263
0.9971738
0.99749096
0.9977698
0.99801519
0.99823137
0.99842202
0.99859031
0.99873901
0.99887052
0.99898694
0.9990901
0.99918158
0.9992628
0.99933496
0.99939914
0.99945627
0.99950717
0.99955257
0.99959309
0.9996293
0.99966169
0.99969068
0.99971667
0.99973998
0.99976091
0.99977972
0.99979664
0.99981189
0.99982563
0.99983804
0.99984924
0.99985937
0.99986854
0.99987685
0.99988439
0.99989122
0.99989744
0.99990309
0.99990823
0.99991291
0.99991718
0.99992107
0.99992462
0.99992786
0.99993082
0.99993352
0.99993599
0.99993825
0.99994032
0.99994221
0.99994393
0.99994551
0.99994695
0.99994826
0.99994946
0.99995055
0.99995154
0.99995245
0.99995326
0.999954
0.99995467
0.99995527
0.9999558
0.99995628
0.9999567
0.99995707
0.9999574
0.99995768
0.99995792
0.99995812
0.99995829
0.99995842
0.99995852
0.99995859
0.99995863
0.99995865
0.99995864
0.99995863
0.9999586
0.99995851
0.99995835
0.99995815
0.9999579
0.9999576
0.99995726
0.99995688
0.99995647
0.99995602
0.99995553
0.99995502
0.99995448
0.99995392
0.99995333
0.99995272
0.99995209
0.99995144
0.99995078
0.9999501
0.99994941
0.99994871
0.999948
0.99994728
0.99994655
0.99994581
0.99994507
0.99994433
0.99994359
0.99994284
0.9999421
0.99994135
0.99994061
0.99993987
0.99993913
0.9999384
0.99993767
0.99993695
0.99993624
0.99993553
0.99993483
0.99993414
0.99993346
0.99993279
0.99993212
0.99993147
0.99993083
0.9999302
0.99992957
0.99992896
0.99992836
0.99992778
0.9999272
0.99992663
0.99992608
0.99992554
0.99992501
0.99992449
0.99992398
0.99992348
0.99992299
0.99992251
0.99992204
0.99992159
0.99992114
0.9999207
0.99992027
0.99991984
0.99991943
0.99991902
0.99991862
0.99991822
0.99991784
0.99991745
0.99991707
0.9999167
0.99991633
2.5598519e-11
8.2967547e-11
4.5000033e-10
2.8355355e-08
9.9133134e-08
2.6473936e-05
9.49856e-05
0.035331374
0.10236109
0.1825609
0.26652987
0.34859005
0.42561415
0.49609105
0.55949186
0.61586284
0.66557018
0.70914221
0.7471734
0.78026712
0.80900289
0.83391882
0.85550363
0.87419431
0.89037733
0.90439169
0.91653295
0.92705761
0.93618759
0.94411436
0.95100285
0.95699498
0.96221278
0.96676114
0.97073024
0.9741976
0.97722993
0.97988465
0.98221126
0.98425241
0.98604496
0.98762074
0.98900732
0.99022856
0.99130516
0.9922551
0.99309403
0.99383554
0.9944915
0.99507225
0.99558683
0.99604315
0.99644811
0.99680779
0.9971275
0.9974119
0.99766508
0.99789066
0.9980918
0.99827129
0.9984316
0.99857489
0.99870307
0.99881784
0.99892068
0.99901292
0.99909572
0.99917012
0.99923702
0.99929724
0.9993515
0.99940042
0.99944459
0.99948449
0.99952057
0.99955323
0.99958282
0.99960965
0.99963401
0.99965613
0.99967625
0.99969456
0.99971123
0.99972643
0.99974029
0.99975295
0.9997645
0.99977507
0.99978473
0.99979356
0.99980165
0.99980905
0.99981583
0.99982204
0.99982773
0.99983294
0.99983771
0.99984208
0.99984607
0.99984972
0.99985306
0.9998561
0.99985887
0.9998614
0.99986369
0.99986577
0.99986765
0.99986934
0.99987086
0.99987223
0.99987344
0.99987451
0.99987545
0.99987627
0.99987697
0.99987757
0.99987807
0.99987847
0.99987879
0.99987903
0.99987919
0.99987928
0.99987931
0.99987929
0.99987928
0.99987915
0.99987888
0.9998785
0.999878
0.99987739
0.99987668
0.99987588
0.999875
0.99987403
0.999873
0.99987189
0.99987073
0.9998695
0.99986822
0.9998669
0.99986553
0.99986412
0.99986268
0.99986121
0.9998597
0.99985818
0.99985663
0.99985507
0.99985349
0.9998519
0.9998503
0.99984869
0.99984709
0.99984548
0.99984387
0.99984227
0.99984067
0.99983908
0.9998375
0.99983593
0.99983437
0.99983283
0.9998313
0.99982979
0.9998283
0.99982682
0.99982537
0.99982394
0.99982253
0.99982114
0.99981978
0.99981844
0.99981712
0.99981583
0.99981456
0.99981332
0.9998121
0.99981091
0.99980974
0.99980859
0.99980747
0.99980638
0.9998053
0.99980425
0.99980322
0.99980222
0.99980123
0.99980027
0.99979932
0.9997984
0.99979749
0.9997966
0.99979572
0.99979486
0.99979402
0.99979319
0.99979237
0.99979156
0.99979076
0.99978997
6.9394464e-14
2.8674247e-13
1.727568e-12
1.3642289e-11
5.3878116e-11
1.2864487e-08
5.5002099e-08
1.5402975e-05
0.00138311
0.022767752
0.06609366
0.12316267
0.18815337
0.25641853
0.32461599
0.39051342
0.45272822
0.5104926
0.56346654
0.61159755
0.655019
0.69397814
0.72878599
0.75978327
0.7873176
0.81172883
0.83333999
0.85245209
0.86934167
0.88426007
0.89743384
0.90906597
0.91933736
0.92840872
0.93642232
0.94350386
0.94976419
0.95530098
0.96020018
0.96453738
0.96837904
0.97178361
0.97480247
0.97748079
0.97985831
0.98196999
0.98384663
0.98551531
0.98699993
0.98832154
0.98949872
0.99054786
0.99148342
0.99231821
0.99306352
0.99372935
0.99432454
0.99485693
0.99533346
0.99576026
0.99614279
0.99648588
0.99679381
0.99707039
0.997319
0.99754263
0.99774395
0.99792534
0.99808889
0.99823649
0.99836979
0.9984903
0.99859932
0.99869804
0.99878751
0.99886866
0.99894233
0.99900928
0.99907015
0.99912556
0.99917603
0.99922204
0.99926402
0.99930234
0.99933736
0.99936937
0.99939866
0.99942547
0.99945003
0.99947253
0.99949316
0.99951208
0.99952943
0.99954535
0.99955996
0.99957336
0.99958566
0.99959694
0.99960728
0.99961676
0.99962545
0.99963339
0.99964066
0.99964729
0.99965334
0.99965884
0.99966384
0.99966837
0.99967247
0.99967616
0.99967946
0.99968242
0.99968505
0.99968736
0.99968939
0.99969115
0.99969266
0.99969394
0.99969499
0.99969583
0.99969649
0.99969696
0.99969727
0.99969741
0.99969741
0.99969739
0.99969729
0.99969691
0.99969628
0.9996954
0.9996943
0.999693
0.9996915
0.99968983
0.99968799
0.999686
0.99968388
0.99968162
0.99967925
0.99967677
0.99967419
0.99967153
0.99966879
0.99966598
0.9996631
0.99966017
0.9996572
0.99965418
0.99965113
0.99964805
0.99964495
0.99964184
0.99963872
0.99963559
0.99963246
0.99962934
0.99962622
0.99962312
0.99962004
0.99961697
0.99961393
0.99961092
0.99960794
0.99960499
0.99960207
0.99959919
0.99959635
0.99959356
0.9995908
0.99958809
0.99958542
0.9995828
0.99958022
0.99957769
0.99957521
0.99957278
0.9995704
0.99956806
0.99956577
0.99956353
0.99956134
0.99955919
0.99955709
0.99955503
0.99955302
0.99955105
0.99954912
0.99954724
0.99954539
0.99954358
0.9995418
0.99954006
0.99953836
0.99953668
0.99953503
0.99953342
0.99953182
0.99953025
0.9995287
0.99952717
3.1862267e-16
1.59388e-15
9.4703009e-15
5.7882458e-14
4.1493716e-13
6.2534236e-12
3.2901259e-11
7.9366708e-09
6.4587376e-07
1.0539862e-05
0.0012830644
0.014322983
0.042375961
0.082221147
0.13082386
0.18509934
0.24236291
0.3004692
0.35780362
0.41321394
0.46592516
0.51545726
0.56155374
0.6041227
0.64318999
0.6788628
0.71130198
0.74070122
0.76727177
0.79123145
0.81279682
0.83217788
0.84957464
0.86517495
0.87915346
0.89167118
0.90287557
0.91290103
0.92186945
0.92989108
0.93706533
0.94348161
0.94922026
0.95435327
0.95894516
0.96305364
0.96673033
0.97002134
0.97296787
0.97560672
0.97797072
0.98008918
0.98198826
0.98369131
0.98521917
0.98659042
0.98782165
0.98892768
0.98992171
0.99081554
0.99161969
0.99234357
0.99299556
0.99358316
0.99411305
0.99459122
0.995023
0.99541316
0.99576596
0.9960852
0.9963743
0.9966363
0.99687392
0.99708959
0.9972855
0.9974636
0.99762563
0.99777316
0.99790759
0.99803019
0.99814207
0.99824425
0.99833764
0.99842305
0.99850123
0.99857283
0.99863844
0.99869859
0.99875378
0.99880444
0.99885095
0.99889367
0.99893292
0.998969
0.99900216
0.99903264
0.99906066
0.9990864
0.99911006
0.99913179
0.99915174
0.99917004
0.99918682
0.99920218
0.99921624
0.99922908
0.99924078
0.99925144
0.99926112
0.99926988
0.99927779
0.99928492
0.9992913
0.99929699
0.99930203
0.99930647
0.99931034
0.99931368
0.99931653
0.99931892
0.99932087
0.99932242
0.99932359
0.9993244
0.99932489
0.99932506
0.99932502
0.99932498
0.99932456
0.99932364
0.99932227
0.99932047
0.99931829
0.99931574
0.99931285
0.99930966
0.99930618
0.99930243
0.99929845
0.99929425
0.99928984
0.99928526
0.99928052
0.99927562
0.9992706
0.99926547
0.99926023
0.99925491
0.99924952
0.99924406
0.99923856
0.99923302
0.99922745
0.99922187
0.99921628
0.99921069
0.99920512
0.99919956
0.99919403
0.99918853
0.99918307
0.99917765
0.99917229
0.99916698
0.99916173
0.99915655
0.99915144
0.99914639
0.99914142
0.99913653
0.99913172
0.99912699
0.99912234
0.99911778
0.9991133
0.99910891
0.9991046
0.99910038
0.99909625
0.9990922
0.99908823
0.99908435
0.99908056
0.99907684
0.9990732
0.99906964
0.99906616
0.99906275
0.99905941
0.99905614
0.99905293
0.99904979
0.99904671
0.99904369
0.99904072
0.9990378
0.99903493
0.9990321
0.99902931
0.99902656
1.4438131e-18
6.8611142e-18
3.673858e-17
1.8458868e-16
9.136394e-16
4.7859448e-15
2.0062028e-14
4.5891231e-12
3.4798123e-10
5.6924115e-09
5.9788023e-07
6.6640764e-06
0.00056516717
0.0079352049
0.025351475
0.052191026
0.087221611
0.12873133
0.1748909
0.22398511
0.27452347
0.32527799
0.37528019
0.42379752
0.47030115
0.51443182
0.5559675
0.59479445
0.63088231
0.66426327
0.69501505
0.7232472
0.74909028
0.77268744
0.79418801
0.81374269
0.8315
0.84760382
0.86219167
0.87539362
0.88733163
0.89811936
0.90786207
0.91665684
0.92459283
0.93175168
0.93820796
0.94402958
0.9492783
0.95401019
0.95827605
0.96212188
0.96558929
0.96871586
0.97153553
0.97407888
0.97637353
0.97844433
0.98031368
0.98200172
0.9835266
0.98490464
0.98615051
0.9872774
0.98829717
0.98922049
0.99005693
0.99081509
0.99150272
0.99212675
0.99269343
0.99320836
0.9936766
0.99410265
0.9944906
0.9948441
0.99516643
0.99546056
0.99572914
0.99597457
0.99619899
0.99640435
0.9965924
0.9967647
0.99692268
0.99706762
0.99720066
0.99732285
0.99743513
0.99753836
0.9976333
0.99772064
0.99780103
0.99787503
0.99794317
0.9980059
0.99806367
0.99811686
0.99816583
0.99821089
0.99825234
0.99829046
0.99832549
0.99835765
0.99838715
0.99841417
0.9984389
0.99846149
0.99848209
0.99850083
0.99851784
0.99853324
0.99854713
0.9985596
0.99857076
0.99858069
0.99858946
0.99859715
0.99860384
0.99860958
0.99861443
0.99861846
0.99862172
0.99862425
0.9986261
0.99862732
0.99862795
0.99862803
0.99862796
0.99862767
0.99862652
0.99862456
0.99862186
0.99861847
0.99861444
0.99860982
0.99860465
0.99859899
0.99859287
0.99858633
0.99857941
0.99857214
0.99856456
0.99855669
0.99854858
0.99854023
0.9985317
0.99852299
0.99851413
0.99850515
0.99849607
0.9984869
0.99847768
0.99846841
0.99845911
0.99844981
0.99844051
0.99843123
0.99842198
0.99841278
0.99840364
0.99839457
0.99838557
0.99837666
0.99836785
0.99835914
0.99835054
0.99834205
0.99833369
0.99832546
0.99831735
0.99830938
0.99830155
0.99829385
0.9982863
0.99827889
0.99827162
0.9982645
0.99825752
0.99825068
0.99824398
0.99823743
0.99823101
0.99822473
0.99821859
0.99821257
0.99820668
0.99820092
0.99819527
0.99818974
0.99818432
0.99817902
0.99817381
0.9981687
0.99816369
0.99815876
0.99815392
0.99814915
0.99814445
0.99813981
4.8616759e-20
3.2832469e-19
2.0460648e-18
1.1248468e-17
5.8047528e-17
3.0078852e-16
1.7112824e-15
1.270928e-14
1.9351773e-13
3.4122763e-12
3.2081442e-10
3.5449826e-09
2.5861465e-07
3.4540876e-06
1.3642867e-05
0.0036141297
0.013445168
0.030531767
0.054616512
0.085044705
0.12079816
0.1607046
0.20358069
0.24832086
0.29394602
0.3396247
0.38467616
0.42856268
0.47087569
0.51131926
0.54969298
0.58587544
0.61980918
0.65148731
0.68094199
0.70823474
0.73344837
0.75668037
0.77803763
0.79763229
0.81557847
0.83198974
0.84697734
0.86064879
0.87310696
0.88444945
0.89476823
0.90414949
0.91267356
0.92041507
0.92744306
0.93382123
0.93960818
0.94485772
0.94961913
0.95393749
0.95785394
0.96140601
0.96462786
0.96755057
0.97020236
0.97260889
0.97479339
0.97677695
0.97857865
0.98021578
0.98170397
0.98305737
0.98428876
0.9854097
0.98643063
0.98736099
0.98820928
0.9889832
0.9896897
0.99033505
0.9909249
0.99146437
0.99195808
0.99241019
0.99282447
0.99320432
0.99355283
0.99387276
0.99416663
0.99443672
0.99468509
0.99491359
0.99512392
0.99531761
0.99549604
0.99566047
0.99581206
0.99595182
0.99608072
0.9961996
0.99630925
0.99641039
0.99650366
0.99658966
0.99666893
0.99674197
0.99680922
0.99687112
0.99692803
0.99698031
0.99702828
0.99707224
0.99711246
0.99714919
0.99718268
0.99721312
0.99724073
0.99726568
0.99728816
0.99730831
0.99732629
0.99734224
0.99735629
0.99736855
0.99737915
0.99738819
0.99739576
0.99740197
0.99740689
0.99741062
0.99741323
0.9974148
0.9974154
0.99741531
0.99741522
0.99741396
0.99741138
0.99740758
0.99740263
0.99739664
0.99738969
0.99738183
0.99737316
0.99736374
0.99735363
0.99734289
0.99733159
0.99731977
0.99730749
0.99729481
0.99728176
0.99726839
0.99725474
0.99724086
0.99722678
0.99721253
0.99719816
0.99718368
0.99716914
0.99715456
0.99713996
0.99712538
0.99711083
0.99709633
0.99708191
0.99706759
0.99705337
0.99703928
0.99702533
0.99701153
0.9969979
0.99698445
0.99697118
0.9969581
0.99694523
0.99693256
0.99692011
0.99690787
0.99689585
0.99688406
0.99687249
0.99686114
0.99685002
0.99683913
0.99682846
0.996818
0.99680777
0.99679776
0.99678795
0.99677835
0.99676895
0.99675975
0.99675075
0.99674192
0.99673328
0.9967248
0.99671649
0.99670834
0.99670034
0.99669249
0.99668476
0.99667717
0.99666968
0.99666228
6.0240596e-22
3.7122365e-21
2.1803497e-20
1.1142682e-19
5.1929418e-19
2.3145488e-18
1.0358356e-17
4.9434452e-17
2.7534223e-16
1.9553761e-15
1.8847635e-13
2.053071e-12
1.334754e-10
1.6923561e-09
7.5323947e-09
1.4383105e-06
6.5728863e-06
0.0014311653
0.0064678241
0.016603368
0.032267131
0.053544868
0.080095795
0.11129047
0.14633415
0.18436507
0.22452614
0.26601321
0.30810418
0.35017376
0.39169785
0.43225095
0.47149923
0.50919118
0.54514715
0.57924876
0.61142883
0.64166202
0.66995658
0.69634702
0.72088794
0.74364875
0.76470934
0.78415646
0.80208086
0.81857499
0.8337312
0.84764034
0.86039071
0.87206734
0.88275141
0.89251995
0.90144563
0.90959664
0.91703675
0.92382533
0.93001754
0.93566442
0.94081313
0.94550711
0.94978632
0.95368747
0.95724417
0.96048721
0.96344475
0.96614247
0.96860383
0.97085019
0.97290101
0.97477399
0.97648524
0.97804938
0.97947972
0.98078831
0.98198613
0.98308312
0.98408829
0.98500983
0.98585517
0.98663102
0.98734351
0.98799817
0.98860002
0.98915363
0.98966312
0.99013225
0.99056443
0.99096275
0.99133003
0.99166883
0.99198146
0.99227005
0.99253651
0.99278261
0.99300993
0.99321994
0.99341397
0.99359323
0.99375884
0.99391179
0.99405304
0.99418342
0.99430372
0.99441466
0.99451689
0.99461103
0.99469762
0.99477718
0.99485019
0.99491708
0.99497827
0.99503412
0.99508499
0.99513119
0.99517303
0.99521079
0.99524473
0.99527508
0.99530208
0.99532595
0.99534687
0.99536503
0.99538062
0.99539378
0.99540469
0.99541348
0.99542029
0.99542526
0.9954285
0.99543012
0.99543025
0.99543013
0.99542901
0.99542583
0.99542075
0.9954139
0.99540542
0.99539544
0.99538408
0.99537144
0.99535763
0.99534276
0.99532693
0.99531021
0.99529271
0.9952745
0.99525566
0.99523626
0.99521636
0.99519605
0.99517537
0.9951544
0.99513317
0.99511174
0.99509017
0.9950685
0.99504677
0.99502501
0.99500328
0.9949816
0.99496001
0.99493853
0.9949172
0.99489604
0.99487507
0.99485431
0.99483379
0.99481352
0.99479352
0.99477379
0.99475436
0.99473523
0.99471642
0.99469792
0.99467975
0.9946619
0.99464439
0.99462722
0.99461038
0.99459388
0.99457771
0.99456187
0.99454635
0.99453116
0.99451629
0.99450173
0.99448747
0.99447351
0.99445984
0.99444644
0.99443332
0.99442046
0.99440785
0.99439547
0.99438333
0.99437141
0.99435969
0.99434816
0.9943368
0.99432558
8.7716104e-24
5.4646988e-23
3.2274537e-22
1.6393264e-21
7.495047e-21
3.2220324e-20
1.3558374e-19
5.8302375e-19
2.7093071e-18
1.4917049e-17
1.2078441e-16
1.2133642e-15
7.3846172e-14
8.8882976e-13
4.2398003e-12