/*--------------------------------*- C++ -*----------------------------------*\
| =========                 |                                                 |
| \\      /  F ield         | OpenFOAM: The Open Source CFD Toolbox           |
|  \\    /   O peration     | Version:  2406                                  |
|   \\  /    A nd           | Website:  www.openfoam.com                      |
|    \\/     M anipulation  |                                                 |
\*---------------------------------------------------------------------------*/
FoamFile
{
    version     2.0;
    format      ascii;
    arch        "LSB;label=32;scalar=64";
    class       volVectorField;
    location    "1460";
    object      U;
}
// * * * * * * * * * * * * * * * * * * * * * * * * * * * * * * * * * * * * * //

dimensions      [0 1 -1 0 0 0 0];

internalField   nonuniform List<vector> 
10200
(
(0.0024175669 -0.0011186222 0)
(0.0039054845 -0.00060953739 0)
(0.0059671117 -0.00013529497 0)
(0.0062025616 7.3044697e-06 0)
(0.0057591234 4.0726789e-05 0)
(0.0052145771 4.3500654e-05 0)
(0.0047006192 3.7361553e-05 0)
(0.004251193 3.0547347e-05 0)
(0.0038664006 2.5090815e-05 0)
(0.0035359151 2.0950582e-05 0)
(0.0032497324 1.7757991e-05 0)
(0.0030000037 1.5228196e-05 0)
(0.0027806493 1.3177754e-05 0)
(0.0025868847 1.148781e-05 0)
(0.0024148738 1.0078154e-05 0)
(0.0022614865 8.8918432e-06 0)
(0.0021241336 7.8865173e-06 0)
(0.0020006509 7.0296101e-06 0)
(0.0018892154 6.2955297e-06 0)
(0.0017882814 5.6638399e-06 0)
(0.0016965316 5.1180188e-06 0)
(0.0016128387 4.644576e-06 0)
(0.001536234 4.2324071e-06 0)
(0.0014658831 3.8723083e-06 0)
(0.0014010647 3.5566058e-06 0)
(0.0013411544 3.2788685e-06 0)
(0.00128561 3.0336822e-06 0)
(0.0012339605 2.8164706e-06 0)
(0.0011857954 2.6233518e-06 0)
(0.0011407567 2.451023e-06 0)
(0.001098532 2.2966659e-06 0)
(0.0010588478 2.1578703e-06 0)
(0.001021465 2.0325708e-06 0)
(0.00098617379 1.9189944e-06 0)
(0.00095279011 1.8156169e-06 0)
(0.00092115229 1.7211265e-06 0)
(0.0008911181 1.6343933e-06 0)
(0.00086256227 1.5544434e-06 0)
(0.00083537428 1.4804367e-06 0)
(0.00080945649 1.4116486e-06 0)
(0.00078472247 1.347454e-06 0)
(0.00076109556 1.2873134e-06 0)
(0.0007385076 1.2307615e-06 0)
(0.00071689787 1.1773968e-06 0)
(0.00069621209 1.1268733e-06 0)
(0.0006764016 1.0788925e-06 0)
(0.00065742262 1.0331973e-06 0)
(0.00063923563 9.8956612e-07 0)
(0.0006218048 9.4780829e-07 0)
(0.00060509751 9.0775935e-07 0)
(0.00058908394 8.6927786e-07 0)
(0.00057373667 8.3224188e-07 0)
(0.0005590304 7.9654649e-07 0)
(0.00054494165 7.6210112e-07 0)
(0.00053144854 7.2882764e-07 0)
(0.00051853055 6.9665851e-07 0)
(0.00050616838 6.6553523e-07 0)
(0.00049434377 6.3540702e-07 0)
(0.00048303937 6.0622964e-07 0)
(0.00047223865 5.7796434e-07 0)
(0.00046192575 5.5057711e-07 0)
(0.00045208548 5.2403775e-07 0)
(0.00044270314 4.9831948e-07 0)
(0.00043376458 4.7339821e-07 0)
(0.00042525606 4.4925221e-07 0)
(0.00041716422 4.2586163e-07 0)
(0.0004094761 4.0320823e-07 0)
(0.00040217903 3.8127506e-07 0)
(0.00039526068 3.6004627e-07 0)
(0.00038870898 3.3950688e-07 0)
(0.00038251213 3.1964265e-07 0)
(0.00037665859 3.0043992e-07 0)
(0.00037113705 2.8188555e-07 0)
(0.00036593644 2.6396678e-07 0)
(0.0003610459 2.4667119e-07 0)
(0.00035645479 2.2998662e-07 0)
(0.00035215269 2.1390113e-07 0)
(0.00034812936 1.9840298e-07 0)
(0.0003443748 1.8348059e-07 0)
(0.00034087916 1.6912248e-07 0)
(0.00033763282 1.5531735e-07 0)
(0.00033462635 1.4205393e-07 0)
(0.00033185051 1.2932111e-07 0)
(0.00032929624 1.171078e-07 0)
(0.00032695468 1.0540296e-07 0)
(0.00032481715 9.4195676e-08 0)
(0.00032287518 8.3475001e-08 0)
(0.00032112046 7.3230104e-08 0)
(0.00031954488 6.3450211e-08 0)
(0.00031814051 5.4124506e-08 0)
(0.00031689961 4.5242311e-08 0)
(0.00031581462 3.6792892e-08 0)
(0.00031487818 2.8765594e-08 0)
(0.00031408308 2.1149763e-08 0)
(0.00031342234 1.3934704e-08 0)
(0.00031288912 7.1098457e-09 0)
(0.00031247678 6.6450781e-10 0)
(0.00031217887 -5.4117821e-09 0)
(0.00031198911 -1.1129597e-08 0)
(0.0003119014 -1.6499439e-08 0)
(0.00031190984 -2.1531888e-08 0)
(0.00031200868 -2.6237316e-08 0)
(0.00031219236 -3.0626173e-08 0)
(0.00031245551 -3.470874e-08 0)
(0.00031279293 -3.8495409e-08 0)
(0.00031319958 -4.1996419e-08 0)
(0.00031367061 -4.5222061e-08 0)
(0.00031420134 -4.8182409e-08 0)
(0.00031478727 -5.0887609e-08 0)
(0.00031542405 -5.3347485e-08 0)
(0.00031610751 -5.5571893e-08 0)
(0.00031683364 -5.7570534e-08 0)
(0.0003175986 -5.9353093e-08 0)
(0.00031839871 -6.0929033e-08 0)
(0.00031923045 -6.2307768e-08 0)
(0.00032009044 -6.3498432e-08 0)
(0.00032097548 -6.4509989e-08 0)
(0.00032188249 -6.535132e-08 0)
(0.00032280858 -6.6031016e-08 0)
(0.00032375095 -6.6557604e-08 0)
(0.00032470698 -6.6939451e-08 0)
(0.00032567419 -6.7184633e-08 0)
(0.0003266502 -6.7301136e-08 0)
(0.0003276328 -6.7296531e-08 0)
(0.00032861988 -6.717825e-08 0)
(0.00032960947 -6.6953523e-08 0)
(0.0003305997 -6.6629422e-08 0)
(0.00033158885 -6.6212733e-08 0)
(0.00033257527 -6.571012e-08 0)
(0.00033355746 -6.5127811e-08 0)
(0.000334534 -6.4471867e-08 0)
(0.00033550357 -6.3748175e-08 0)
(0.00033646495 -6.2962414e-08 0)
(0.00033741704 -6.2120033e-08 0)
(0.00033835879 -6.122627e-08 0)
(0.00033928926 -6.0286104e-08 0)
(0.00034020759 -5.9304154e-08 0)
(0.00034111298 -5.8285047e-08 0)
(0.00034200475 -5.7232943e-08 0)
(0.00034288224 -5.6152039e-08 0)
(0.0003437449 -5.5046265e-08 0)
(0.00034459221 -5.3919371e-08 0)
(0.00034542374 -5.2774913e-08 0)
(0.00034623912 -5.1616194e-08 0)
(0.000347038 -5.0446252e-08 0)
(0.00034782013 -4.9268099e-08 0)
(0.00034858529 -4.8084481e-08 0)
(0.00034933329 -4.689807e-08 0)
(0.00035006401 -4.571134e-08 0)
(0.00035077736 -4.4526611e-08 0)
(0.00035147329 -4.334594e-08 0)
(0.00035215179 -4.217138e-08 0)
(0.00035281289 -4.1004786e-08 0)
(0.00035345664 -3.9847852e-08 0)
(0.00035408313 -3.8702294e-08 0)
(0.00035469246 -3.7569489e-08 0)
(0.00035528479 -3.6450936e-08 0)
(0.00035586028 -3.5347758e-08 0)
(0.00035641911 -3.4261253e-08 0)
(0.00035696149 -3.3192331e-08 0)
(0.00035748765 -3.2142071e-08 0)
(0.00035799784 -3.1111286e-08 0)
(0.00035849231 -3.0100835e-08 0)
(0.00035897134 -2.9111403e-08 0)
(0.00035943523 -2.8143534e-08 0)
(0.00035988427 -2.7197878e-08 0)
(0.00036031877 -2.6274889e-08 0)
(0.00036073907 -2.537512e-08 0)
(0.00036114549 -2.4498963e-08 0)
(0.00036153837 -2.3646837e-08 0)
(0.00036191806 -2.2818906e-08 0)
(0.00036228492 -2.2015547e-08 0)
(0.00036263931 -2.1236953e-08 0)
(0.0003629816 -2.0483368e-08 0)
(0.00036331216 -1.9755062e-08 0)
(0.00036363137 -1.905223e-08 0)
(0.00036393961 -1.8375087e-08 0)
(0.00036423728 -1.7723917e-08 0)
(0.00036452476 -1.7098931e-08 0)
(0.00036480247 -1.6500562e-08 0)
(0.00036507081 -1.5929017e-08 0)
(0.0003653302 -1.5384992e-08 0)
(0.00036558107 -1.4868984e-08 0)
(0.00036582388 -1.4382132e-08 0)
(0.00036605909 -1.3925609e-08 0)
(0.0003662872 -1.3501605e-08 0)
(0.00036650875 -1.3112642e-08 0)
(0.00036672435 -1.2763168e-08 0)
(0.00036693469 -1.2459297e-08 0)
(0.00036714061 -1.2211359e-08 0)
(0.00036734312 -1.2035325e-08 0)
(0.00036754358 -1.195827e-08 0)
(0.00036774385 -1.2026233e-08 0)
(0.0003679466 -1.2325771e-08 0)
(0.00036815588 -1.3029179e-08 0)
(0.00036837836 -1.449274e-08 0)
(0.00036862545 -1.766005e-08 0)
(0.00036891569 -2.512307e-08 0)
(0.00036930095 -3.834051e-08 0)
(0.00037005109 -1.0615237e-07 0)
(0.012887907 -0.0044079713 0)
(0.015260781 -0.0026934181 0)
(0.017440088 -0.00071499625 0)
(0.017288241 0.00020071698 0)
(0.016076316 0.00048556682 0)
(0.014706495 0.00051461813 0)
(0.013411578 0.00046605618 0)
(0.012251466 0.00040419982 0)
(0.011232086 0.00034816993 0)
(0.010338127 0.00030137054 0)
(0.0095514197 0.00026269865 0)
(0.0088560975 0.00023048361 0)
(0.0082389257 0.00020337039 0)
(0.0076889181 0.00018034555 0)
(0.0071969227 0.00016064977 0)
(0.0067552574 0.00014370275 0)
(0.0063574244 0.00012905007 0)
(0.0059978918 0.00011632858 0)
(0.0056719259 0.00010524348 0)
(0.0053754573 9.555251e-05 0)
(0.0051049752 8.7054609e-05 0)
(0.0048574417 7.9581555e-05 0)
(0.0046302208 7.2991653e-05 0)
(0.0044210204 6.7164888e-05 0)
(0.0042278437 6.1999122e-05 0)
(0.0040489482 5.7407087e-05 0)
(0.0038828109 5.3313951e-05 0)
(0.0037280993 4.965536e-05 0)
(0.0035836457 4.6375818e-05 0)
(0.0034484262 4.3427366e-05 0)
(0.0033215419 4.0768472e-05 0)
(0.0032022027 3.8363112e-05 0)
(0.0030897139 3.6179994e-05 0)
(0.0029834639 3.4191908e-05 0)
(0.0028829137 3.2375168e-05 0)
(0.0027875881 3.0709144e-05 0)
(0.0026970675 2.9175858e-05 0)
(0.0026109809 2.7759634e-05 0)
(0.0025290001 2.6446806e-05 0)
(0.0024508344 2.5225453e-05 0)
(0.0023762255 2.4085184e-05 0)
(0.0023049439 2.3016937e-05 0)
(0.002236785 2.2012815e-05 0)
(0.0021715661 2.1065936e-05 0)
(0.0021091238 2.0170306e-05 0)
(0.0020493112 1.9320706e-05 0)
(0.0019919961 1.8512595e-05 0)
(0.0019370589 1.7742022e-05 0)
(0.0018843913 1.700555e-05 0)
(0.0018338945 1.6300195e-05 0)
(0.0017854782 1.5623359e-05 0)
(0.0017390595 1.4972789e-05 0)
(0.0016945618 1.4346525e-05 0)
(0.0016519143 1.3742863e-05 0)
(0.0016110507 1.3160322e-05 0)
(0.0015719092 1.2597614e-05 0)
(0.0015344316 1.2053616e-05 0)
(0.0014985629 1.1527346e-05 0)
(0.0014642511 1.1017948e-05 0)
(0.0014314464 1.0524669e-05 0)
(0.0014001014 1.0046847e-05 0)
(0.0013701704 9.5838973e-06 0)
(0.0013416097 9.1352994e-06 0)
(0.0013143768 8.700589e-06 0)
(0.0012884307 8.2793487e-06 0)
(0.0012637316 7.8712007e-06 0)
(0.0012402409 7.4758003e-06 0)
(0.0012179208 7.0928309e-06 0)
(0.0011967345 6.7219989e-06 0)
(0.0011766463 6.3630304e-06 0)
(0.0011576209 6.0156672e-06 0)
(0.0011396241 5.6796647e-06 0)
(0.0011226222 5.3547891e-06 0)
(0.0011065823 5.0408158e-06 0)
(0.0010914722 4.7375275e-06 0)
(0.0010772601 4.4447128e-06 0)
(0.0010639151 4.1621657e-06 0)
(0.0010514068 3.8896838e-06 0)
(0.0010397055 3.6270685e-06 0)
(0.0010287818 3.3741234e-06 0)
(0.0010186072 3.130655e-06 0)
(0.0010091536 2.8964711e-06 0)
(0.0010003935 2.6713813e-06 0)
(0.00099230005 2.4551967e-06 0)
(0.00098484685 2.2477291e-06 0)
(0.0009780081 2.0487913e-06 0)
(0.00097175858 1.8581972e-06 0)
(0.00096607359 1.675761e-06 0)
(0.00096092901 1.5012978e-06 0)
(0.00095630124 1.3346232e-06 0)
(0.00095216726 1.1755533e-06 0)
(0.0009485046 1.0239045e-06 0)
(0.0009452913 8.7949401e-07 0)
(0.000942506 7.4213907e-07 0)
(0.00094012783 6.1165746e-07 0)
(0.00093813652 4.8786754e-07 0)
(0.00093651229 3.7058793e-07 0)
(0.00093523593 2.5963811e-07 0)
(0.00093428877 1.5483791e-07 0)
(0.00093365266 5.6007818e-08 0)
(0.00093331 -3.7031332e-08 0)
(0.00093324372 -1.2445745e-07 0)
(0.00093343728 -2.0644695e-07 0)
(0.00093387465 -2.8317547e-07 0)
(0.00093454035 -3.5481828e-07 0)
(0.00093541939 -4.2154913e-07 0)
(0.00093649733 -4.835407e-07 0)
(0.00093776021 -5.409638e-07 0)
(0.0009391946 -5.9398781e-07 0)
(0.00094078754 -6.4277994e-07 0)
(0.00094252661 -6.8750571e-07 0)
(0.00094439984 -7.2832844e-07 0)
(0.00094639575 -7.6540948e-07 0)
(0.00094850336 -7.9890766e-07 0)
(0.00095071213 -8.2897938e-07 0)
(0.00095301199 -8.5577818e-07 0)
(0.00095539333 -8.7945475e-07 0)
(0.00095784696 -9.0015698e-07 0)
(0.00096036416 -9.1802954e-07 0)
(0.0009629366 -9.3321418e-07 0)
(0.00096555639 -9.4584948e-07 0)
(0.00096821604 -9.5607055e-07 0)
(0.00097090844 -9.6400919e-07 0)
(0.00097362689 -9.6979332e-07 0)
(0.00097636505 -9.7354742e-07 0)
(0.00097911695 -9.7539238e-07 0)
(0.00098187697 -9.7544554e-07 0)
(0.00098463983 -9.7382052e-07 0)
(0.00098740059 -9.7062729e-07 0)
(0.00099015463 -9.6597174e-07 0)
(0.00099289763 -9.5995608e-07 0)
(0.00099562558 -9.5267894e-07 0)
(0.00099833475 -9.4423526e-07 0)
(0.0010010217 -9.3471636e-07 0)
(0.0010036832 -9.2420985e-07 0)
(0.0010063164 -9.1279969e-07 0)
(0.0010089185 -9.0056595e-07 0)
(0.0010114872 -8.875856e-07 0)
(0.0010140202 -8.739317e-07 0)
(0.0010165154 -8.596744e-07 0)
(0.0010189711 -8.4488044e-07 0)
(0.0010213857 -8.296134e-07 0)
(0.0010237577 -8.1393362e-07 0)
(0.0010260859 -7.9789824e-07 0)
(0.0010283692 -7.8156124e-07 0)
(0.0010306066 -7.6497394e-07 0)
(0.0010327974 -7.4818472e-07 0)
(0.001034941 -7.312394e-07 0)
(0.0010370368 -7.1418109e-07 0)
(0.0010390845 -6.9705031e-07 0)
(0.0010410838 -6.7988492e-07 0)
(0.0010430346 -6.6272066e-07 0)
(0.0010449368 -6.4559088e-07 0)
(0.0010467904 -6.2852673e-07 0)
(0.0010485957 -6.1155749e-07 0)
(0.0010503529 -5.9471011e-07 0)
(0.0010520622 -5.7800997e-07 0)
(0.0010537241 -5.614802e-07 0)
(0.001055339 -5.4514264e-07 0)
(0.0010569074 -5.2901702e-07 0)
(0.0010584299 -5.1312188e-07 0)
(0.0010599072 -4.974741e-07 0)
(0.0010613399 -4.8208926e-07 0)
(0.0010627287 -4.6698151e-07 0)
(0.0010640745 -4.521636e-07 0)
(0.001065378 -4.3764745e-07 0)
(0.0010666401 -4.234437e-07 0)
(0.0010678617 -4.0956235e-07 0)
(0.0010690436 -3.9601224e-07 0)
(0.0010701869 -3.8280152e-07 0)
(0.0010712924 -3.6993724e-07 0)
(0.0010723611 -3.5742626e-07 0)
(0.0010733941 -3.4527466e-07 0)
(0.0010743924 -3.3348827e-07 0)
(0.001075357 -3.2207273e-07 0)
(0.0010762889 -3.1103343e-07 0)
(0.0010771893 -3.0037585e-07 0)
(0.0010780593 -2.9010589e-07 0)
(0.0010788999 -2.8022981e-07 0)
(0.0010797124 -2.7075512e-07 0)
(0.0010804977 -2.6169027e-07 0)
(0.0010812573 -2.5304655e-07 0)
(0.0010819922 -2.4483781e-07 0)
(0.0010827038 -2.3708333e-07 0)
(0.0010833934 -2.2980878e-07 0)
(0.0010840624 -2.2305088e-07 0)
(0.0010847124 -2.1686095e-07 0)
(0.0010853452 -2.1131487e-07 0)
(0.0010859627 -2.0652398e-07 0)
(0.0010865674 -2.0265744e-07 0)
(0.0010871621 -1.9997348e-07 0)
(0.0010877508 -1.9887581e-07 0)
(0.0010883387 -2.0000781e-07 0)
(0.0010889329 -2.0443843e-07 0)
(0.0010895441 -2.1401502e-07 0)
(0.0010901887 -2.3198429e-07 0)
(0.0010908907 -2.6478341e-07 0)
(0.0010916857 -3.292581e-07 0)
(0.0010926801 -4.5416557e-07 0)
(0.0010942016 -5.8598391e-07 0)
(0.043610844 -0.0035548488 0)
(0.037655921 -0.0025845088 0)
(0.034606243 -0.00011966899 0)
(0.032194901 0.0012892153 0)
(0.029852875 0.0017946284 0)
(0.027614061 0.001824593 0)
(0.025510619 0.0016702074 0)
(0.023570479 0.0014740954 0)
(0.021809316 0.0012889742 0)
(0.020223208 0.0011281816 0)
(0.018798336 0.00099154326 0)
(0.017518349 0.00087559028 0)
(0.016367133 0.00077673592 0)
(0.015329837 0.00069197287 0)
(0.014393198 0.00061889857 0)
(0.013545528 0.0005556034 0)
(0.012776562 0.00050055524 0)
(0.0120773 0.00045250932 0)
(0.011439846 0.00041044232 0)
(0.010857271 0.00037350427 0)
(0.01032349 0.00034098306 0)
(0.0098331524 0.00031227777 0)
(0.0093815534 0.00028687824 0)
(0.0089645511 0.00026434926 0)
(0.0085784978 0.00024431793 0)
(0.008220179 0.00022646367 0)
(0.0078867605 0.00021051 0)
(0.0075757418 0.00019621788 0)
(0.0072849165 0.00018338014 0)
(0.0070123361 0.00017181691 0)
(0.0067562791 0.00016137175 0)
(0.0065152245 0.00015190843 0)
(0.006287827 0.00014330813 0)
(0.0060728965 0.00013546718 0)
(0.0058693796 0.00012829501 0)
(0.005676343 0.0001217125 0)
(0.0054929597 0.00011565045 0)
(0.0053184958 0.00011004836 0)
(0.0051522995 0.00010485333 0)
(0.0049937914 0.00010001909 0)
(0.0048424556 9.5505206e-05 0)
(0.0046978323 9.1276301e-05 0)
(0.0045595104 8.7301482e-05 0)
(0.0044271225 8.3553757e-05 0)
(0.0043003385 8.0009557e-05 0)
(0.0041788618 7.6648314e-05 0)
(0.004062425 7.3452087e-05 0)
(0.003950786 7.0405231e-05 0)
(0.0038437249 6.7494114e-05 0)
(0.0037410416 6.4706857e-05 0)
(0.003642553 6.203312e-05 0)
(0.0035480907 5.9463895e-05 0)
(0.0034574995 5.6991344e-05 0)
(0.0033706356 5.4608639e-05 0)
(0.003287365 5.2309836e-05 0)
(0.0032075624 5.008975e-05 0)
(0.0031311103 4.7943861e-05 0)
(0.0030578975 4.5868216e-05 0)
(0.0029878189 4.3859357e-05 0)
(0.0029207742 4.1914247e-05 0)
(0.002856668 4.0030213e-05 0)
(0.0027954084 3.8204892e-05 0)
(0.0027369073 3.6436185e-05 0)
(0.0026810795 3.4722221e-05 0)
(0.0026278429 3.3061318e-05 0)
(0.0025771175 3.1451957e-05 0)
(0.0025288259 2.9892754e-05 0)
(0.0024828926 2.838244e-05 0)
(0.002439244 2.6919844e-05 0)
(0.0023978081 2.5503872e-05 0)
(0.0023585149 2.4133498e-05 0)
(0.0023212956 2.280775e-05 0)
(0.0022860829 2.1525703e-05 0)
(0.0022528111 2.0286468e-05 0)
(0.0022214156 1.9089189e-05 0)
(0.0021918331 1.7933033e-05 0)
(0.0021640017 1.6817188e-05 0)
(0.0021378604 1.574086e-05 0)
(0.0021133498 1.4703268e-05 0)
(0.0020904114 1.3703641e-05 0)
(0.002068988 1.2741219e-05 0)
(0.0020490233 1.1815249e-05 0)
(0.0020304624 1.0924984e-05 0)
(0.0020132515 1.0069682e-05 0)
(0.0019973378 9.2486046e-06 0)
(0.0019826695 8.4610183e-06 0)
(0.0019691964 7.7061918e-06 0)
(0.0019568688 6.9833967e-06 0)
(0.0019456385 6.2919067e-06 0)
(0.0019354582 5.6309979e-06 0)
(0.0019262819 4.9999482e-06 0)
(0.0019180646 4.398037e-06 0)
(0.0019107623 3.824546e-06 0)
(0.0019043321 3.278758e-06 0)
(0.0018987324 2.759958e-06 0)
(0.0018939225 2.2674327e-06 0)
(0.0018898628 1.8004707e-06 0)
(0.0018865149 1.3583634e-06 0)
(0.0018838412 9.4040399e-07 0)
(0.0018818056 5.4588861e-07 0)
(0.0018803726 1.741159e-07 0)
(0.0018795082 -1.7561126e-07 0)
(0.001879179 -5.0398639e-07 0)
(0.0018793532 -8.1169901e-07 0)
(0.0018799995 -1.0994331e-06 0)
(0.001881088 -1.3678688e-06 0)
(0.0018825897 -1.6176811e-06 0)
(0.0018844766 -1.8495384e-06 0)
(0.0018867217 -2.064102e-06 0)
(0.001889299 -2.2620263e-06 0)
(0.0018921837 -2.4439575e-06 0)
(0.0018953516 -2.610534e-06 0)
(0.0018987797 -2.7623851e-06 0)
(0.0019024459 -2.9001309e-06 0)
(0.001906329 -3.0243815e-06 0)
(0.0019104087 -3.135736e-06 0)
(0.0019146657 -3.2347828e-06 0)
(0.0019190815 -3.3220986e-06 0)
(0.0019236384 -3.398248e-06 0)
(0.0019283197 -3.4637838e-06 0)
(0.0019331094 -3.519246e-06 0)
(0.0019379923 -3.5651614e-06 0)
(0.001942954 -3.6020435e-06 0)
(0.001947981 -3.6303918e-06 0)
(0.0019530604 -3.6506919e-06 0)
(0.00195818 -3.6634153e-06 0)
(0.0019633285 -3.6690197e-06 0)
(0.0019684949 -3.6679483e-06 0)
(0.0019736693 -3.6606295e-06 0)
(0.0019788422 -3.6474774e-06 0)
(0.0019840046 -3.6288912e-06 0)
(0.0019891485 -3.605256e-06 0)
(0.0019942659 -3.5769427e-06 0)
(0.0019993499 -3.5443078e-06 0)
(0.0020043939 -3.5076938e-06 0)
(0.0020093916 -3.4674286e-06 0)
(0.0020143376 -3.4238267e-06 0)
(0.0020192266 -3.3771885e-06 0)
(0.0020240539 -3.3278014e-06 0)
(0.0020288154 -3.2759397e-06 0)
(0.002033507 -3.2218651e-06 0)
(0.0020381255 -3.1658267e-06 0)
(0.0020426675 -3.1080613e-06 0)
(0.0020471305 -3.0487934e-06 0)
(0.0020515119 -2.988236e-06 0)
(0.0020558097 -2.9265906e-06 0)
(0.0020600221 -2.8640483e-06 0)
(0.0020641476 -2.8007892e-06 0)
(0.0020681848 -2.7369835e-06 0)
(0.0020721329 -2.6727911e-06 0)
(0.0020759911 -2.6083624e-06 0)
(0.0020797588 -2.5438385e-06 0)
(0.0020834357 -2.4793518e-06 0)
(0.0020870218 -2.4150263e-06 0)
(0.0020905171 -2.3509777e-06 0)
(0.0020939218 -2.2873141e-06 0)
(0.0020972364 -2.2241358e-06 0)
(0.0021004614 -2.1615364e-06 0)
(0.0021035976 -2.0996022e-06 0)
(0.0021066457 -2.0384134e-06 0)
(0.0021096067 -1.978044e-06 0)
(0.0021124817 -1.9185623e-06 0)
(0.0021152719 -1.8600311e-06 0)
(0.0021179786 -1.8025077e-06 0)
(0.002120603 -1.7460448e-06 0)
(0.0021231467 -1.6906906e-06 0)
(0.0021256112 -1.6364891e-06 0)
(0.0021279981 -1.5834807e-06 0)
(0.0021303089 -1.5317023e-06 0)
(0.0021325455 -1.4811871e-06 0)
(0.0021347097 -1.4319655e-06 0)
(0.0021368031 -1.3840659e-06 0)
(0.0021388277 -1.337514e-06 0)
(0.0021407853 -1.2923345e-06 0)
(0.002142678 -1.248551e-06 0)
(0.0021445077 -1.2061864e-06 0)
(0.0021462764 -1.1652638e-06 0)
(0.0021479862 -1.1258078e-06 0)
(0.0021496391 -1.087845e-06 0)
(0.0021512375 -1.0514059e-06 0)
(0.0021527833 -1.0165265e-06 0)
(0.002154279 -9.8325201e-07 0)
(0.0021557268 -9.5164016e-07 0)
(0.0021571292 -9.2176771e-07 0)
(0.0021584888 -8.9373905e-07 0)
(0.0021598083 -8.6769936e-07 0)
(0.0021610907 -8.4385462e-07 0)
(0.0021623394 -8.2250288e-07 0)
(0.0021635582 -8.040822e-07 0)
(0.0021647516 -7.892464e-07 0)
(0.0021659253 -7.7898356e-07 0)
(0.0021670863 -7.7480568e-07 0)
(0.0021682442 -7.7905831e-07 0)
(0.0021694115 -7.9544506e-07 0)
(0.0021706061 -8.2988914e-07 0)
(0.0021718527 -8.9184706e-07 0)
(0.0021731808 -9.9717599e-07 0)
(0.0021746261 -1.1754026e-06 0)
(0.0021763357 -1.4539134e-06 0)
(0.0021784774 -1.6974674e-06 0)
(0.048729364 0.0010541853 0)
(0.047351322 0.0027939913 0)
(0.045378845 0.003774089 0)
(0.043424048 0.0042319671 0)
(0.041500965 0.0043596161 0)
(0.03950986 0.0042451632 0)
(0.03744942 0.0039794762 0)
(0.035376888 0.0036472831 0)
(0.033350666 0.0033036079 0)
(0.031410688 0.002976454 0)
(0.02957958 0.0026772424 0)
(0.027867559 0.002408798 0)
(0.026276648 0.002170054 0)
(0.024803904 0.0019584768 0)
(0.023443616 0.0017711729 0)
(0.022188668 0.0016053374 0)
(0.021031357 0.0014584101 0)
(0.019963893 0.0013281108 0)
(0.018978692 0.0012124293 0)
(0.018068543 0.0011096011 0)
(0.0172267 0.0010180792 0)
(0.016446919 0.00093650761 0)
(0.01572347 0.00086369724 0)
(0.015051126 0.00079860509 0)
(0.014425139 0.00074031562 0)
(0.013841212 0.00068802475 0)
(0.01329547 0.00064102585 0)
(0.012784423 0.00059869763 0)
(0.012304935 0.00056049353 0)
(0.011854192 0.00052593254 0)
(0.01142967 0.00049459115 0)
(0.011029113 0.00046609639 0)
(0.010650499 0.00044011973 0)
(0.01029202 0.00041637173 0)
(0.0099520607 0.00039459742 0)
(0.0096291756 0.00037457218 0)
(0.0093220739 0.00035609817 0)
(0.0090296007 0.00033900119 0)
(0.0087507235 0.00032312788 0)
(0.0084845181 0.00030834331 0)
(0.0082301566 0.00029452881 0)
(0.0079868969 0.00028158005 0)
(0.0077540729 0.0002694054 0)
(0.0075310855 0.00025792438 0)
(0.0073173955 0.00024706639 0)
(0.0071125158 0.00023676952 0)
(0.0069160062 0.00022697953 0)
(0.006727467 0.0002176489 0)
(0.0065465349 0.00020873608 0)
(0.0063728782 0.0002002047 0)
(0.0062061929 0.00019202299 0)
(0.0060461998 0.00018416317 0)
(0.005892641 0.00017660099 0)
(0.0057452777 0.00016931526 0)
(0.0056038875 0.00016228748 0)
(0.0054682623 0.00015550148 0)
(0.0053382071 0.00014894312 0)
(0.0052135379 0.00014260001 0)
(0.0050940803 0.00013646132 0)
(0.0049796688 0.00013051751 0)
(0.0048701452 0.00012476019 0)
(0.0047653583 0.00011918194 0)
(0.0046651625 0.00011377617 0)
(0.0045694175 0.00010853703 0)
(0.0044779879 0.00010345926 0)
(0.0043907423 9.8538119e-05 0)
(0.004307553 9.3769308e-05 0)
(0.0042282959 8.9148896e-05 0)
(0.0041528501 8.4673262e-05 0)
(0.0040810973 8.0339044e-05 0)
(0.0040129222 7.6143095e-05 0)
(0.0039482118 7.2082449e-05 0)
(0.0038868555 6.8154286e-05 0)
(0.0038287451 6.4355909e-05 0)
(0.0037737743 6.0684722e-05 0)
(0.0037218391 5.7138208e-05 0)
(0.0036728374 5.3713917e-05 0)
(0.0036266691 5.0409454e-05 0)
(0.003583236 4.7222463e-05 0)
(0.0035424419 4.4150628e-05 0)
(0.0035041923 4.1191656e-05 0)
(0.0034683946 3.8343279e-05 0)
(0.0034349583 3.5603245e-05 0)
(0.0034037943 3.2969319e-05 0)
(0.0033748157 3.0439274e-05 0)
(0.0033479371 2.8010894e-05 0)
(0.0033230751 2.5681972e-05 0)
(0.0033001481 2.3450305e-05 0)
(0.0032790763 2.1313698e-05 0)
(0.0032597816 1.9269959e-05 0)
(0.0032421879 1.7316901e-05 0)
(0.0032262207 1.5452344e-05 0)
(0.0032118074 1.367411e-05 0)
(0.0031988772 1.1980027e-05 0)
(0.003187361 1.0367927e-05 0)
(0.0031771917 8.8356504e-06 0)
(0.0031683037 7.3810406e-06 0)
(0.0031606333 6.0019503e-06 0)
(0.0031541188 4.6962394e-06 0)
(0.0031486999 3.4617765e-06 0)
(0.0031443183 2.2964403e-06 0)
(0.0031409172 1.1981202e-06 0)
(0.003138442 1.6471912e-07 0)
(0.0031368392 -8.0584629e-07 0)
(0.0031360576 -1.7156481e-06 0)
(0.0031360474 -2.5667365e-06 0)
(0.0031367604 -3.3611464e-06 0)
(0.0031381504 -4.1008936e-06 0)
(0.0031401724 -4.7879727e-06 0)
(0.0031427835 -5.4243553e-06 0)
(0.0031459421 -6.0119883e-06 0)
(0.0031496083 -6.5527924e-06 0)
(0.0031537437 -7.0486614e-06 0)
(0.0031583115 -7.5014596e-06 0)
(0.0031632764 -7.9130205e-06 0)
(0.0031686046 -8.2851453e-06 0)
(0.0031742638 -8.6196014e-06 0)
(0.0031802231 -8.9181211e-06 0)
(0.0031864529 -9.1824007e-06 0)
(0.0031929251 -9.4140993e-06 0)
(0.0031996129 -9.6148375e-06 0)
(0.0032064909 -9.7861969e-06 0)
(0.0032135348 -9.9297184e-06 0)
(0.0032207217 -1.0046902e-05 0)
(0.0032280298 -1.0139206e-05 0)
(0.0032354386 -1.0208046e-05 0)
(0.0032429286 -1.0254797e-05 0)
(0.0032504815 -1.0280789e-05 0)
(0.0032580801 -1.0287311e-05 0)
(0.0032657081 -1.0275607e-05 0)
(0.0032733504 -1.0246878e-05 0)
(0.0032809927 -1.0202284e-05 0)
(0.0032886216 -1.014294e-05 0)
(0.0032962249 -1.0069921e-05 0)
(0.0033037908 -9.9842577e-06 0)
(0.0033113088 -9.886941e-06 0)
(0.003318769 -9.7789199e-06 0)
(0.0033261621 -9.661103e-06 0)
(0.0033334798 -9.5343596e-06 0)
(0.0033407143 -9.3995204e-06 0)
(0.0033478587 -9.2573781e-06 0)
(0.0033549065 -9.1086882e-06 0)
(0.003361852 -8.9541695e-06 0)
(0.0033686899 -8.7945056e-06 0)
(0.0033754156 -8.6303451e-06 0)
(0.003382025 -8.4623036e-06 0)
(0.0033885145 -8.290964e-06 0)
(0.0033948809 -8.116878e-06 0)
(0.0034011215 -7.9405665e-06 0)
(0.0034072342 -7.7625209e-06 0)
(0.0034132169 -7.5832042e-06 0)
(0.0034190683 -7.4030518e-06 0)
(0.0034247872 -7.222473e-06 0)
(0.0034303729 -7.0418517e-06 0)
(0.0034358247 -6.8615473e-06 0)
(0.0034411427 -6.6818961e-06 0)
(0.0034463269 -6.5032119e-06 0)
(0.0034513776 -6.3257872e-06 0)
(0.0034562955 -6.1498942e-06 0)
(0.0034610814 -5.9757855e-06 0)
(0.0034657363 -5.8036958e-06 0)
(0.0034702616 -5.6338418e-06 0)
(0.0034746587 -5.4664241e-06 0)
(0.0034789291 -5.3016273e-06 0)
(0.0034830746 -5.1396215e-06 0)
(0.0034870972 -4.980563e-06 0)
(0.0034909988 -4.824596e-06 0)
(0.0034947817 -4.6718524e-06 0)
(0.0034984482 -4.5224535e-06 0)
(0.0035020005 -4.3765105e-06 0)
(0.0035054414 -4.2341258e-06 0)
(0.0035087732 -4.095394e-06 0)
(0.0035119987 -3.9604037e-06 0)
(0.0035151207 -3.8292382e-06 0)
(0.003518142 -3.7019771e-06 0)
(0.0035210654 -3.5786984e-06 0)
(0.003523894 -3.4594803e-06 0)
(0.0035266308 -3.344404e-06 0)
(0.0035292789 -3.233557e-06 0)
(0.0035318416 -3.1270372e-06 0)
(0.003534322 -3.0249595e-06 0)
(0.0035367237 -2.9274633e-06 0)
(0.0035390502 -2.8347248e-06 0)
(0.0035413051 -2.7469729e-06 0)
(0.0035434923 -2.6645136e-06 0)
(0.003545616 -2.5877647e-06 0)
(0.0035476806 -2.5173086e-06 0)
(0.0035496911 -2.4539703e-06 0)
(0.0035516532 -2.3989348e-06 0)
(0.0035535732 -2.3539222e-06 0)
(0.003555459 -2.3214491e-06 0)
(0.00355732 -2.3052135e-06 0)
(0.0035591679 -2.3106533e-06 0)
(0.0035610175 -2.3457234e-06 0)
(0.0035628874 -2.4218614e-06 0)
(0.0035648004 -2.5548029e-06 0)
(0.0035667756 -2.7644644e-06 0)
(0.0035688283 -3.0718673e-06 0)
(0.0035711061 -3.4753688e-06 0)
(0.0035737306 -3.8454837e-06 0)
(0.048877288 0.0013638953 0)
(0.048975216 0.0032428004 0)
(0.048742862 0.0045469853 0)
(0.048221646 0.0053968194 0)
(0.047403494 0.005840335 0)
(0.046277085 0.0059594992 0)
(0.044884019 0.0058519509 0)
(0.043294226 0.0056028991 0)
(0.041579838 0.0052757997 0)
(0.039804285 0.0049141216 0)
(0.038018354 0.0045456787 0)
(0.036259586 0.0041870071 0)
(0.034553814 0.0038471569 0)
(0.032917579 0.0035305191 0)
(0.031360502 0.0032386987 0)
(0.029887218 0.0029716848 0)
(0.028498879 0.0027285598 0)
(0.027194268 0.0025079235 0)
(0.025970609 0.0023081478 0)
(0.024824153 0.0021275268 0)
(0.02375059 0.0019643676 0)
(0.02274534 0.0018170427 0)
(0.021803759 0.0016840186 0)
(0.020921273 0.001563871 0)
(0.020093468 0.0014552896 0)
(0.019316152 0.0013570783 0)
(0.018585386 0.0012681507 0)
(0.017897498 0.0011875245 0)
(0.017249094 0.0011143146 0)
(0.016637047 0.0010477252 0)
(0.016058495 0.00098704271 0)
(0.015510823 0.00093162839 0)
(0.014991651 0.00088091125 0)
(0.014498819 0.00083438168 0)
(0.014030367 0.00079158541 0)
(0.013584521 0.00075211797 0)
(0.013159679 0.00071561962 0)
(0.012754392 0.00068177076 0)
(0.012367354 0.00065028772 0)
(0.011997384 0.00062091899 0)
(0.011643418 0.00059344181 0)
(0.011304495 0.00056765906 0)
(0.010979744 0.00054339648 0)
(0.010668382 0.00052050018 0)
(0.010369697 0.00049883441 0)
(0.010083043 0.00047827952 0)
(0.0098078363 0.00045873014 0)
(0.0095435424 0.00044009358 0)
(0.0092896748 0.0004222884 0)
(0.0090457881 0.00040524305 0)
(0.0088114735 0.00038889476 0)
(0.0085863542 0.0003731885 0)
(0.0083700822 0.00035807602 0)
(0.0081623343 0.00034351508 0)
(0.0079628095 0.00032946867 0)
(0.0077712263 0.00031590437 0)
(0.0075873202 0.00030279379 0)
(0.0074108418 0.00029011201 0)
(0.0072415549 0.0002778372 0)
(0.0070792348 0.00026595014 0)
(0.0069236672 0.00025443389 0)
(0.0067746468 0.00024327352 0)
(0.0066319762 0.00023245575 0)
(0.0064954652 0.00022196879 0)
(0.0063649298 0.00021180209 0)
(0.0062401916 0.00020194613 0)
(0.0061210775 0.00019239232 0)
(0.0060074186 0.00018313282 0)
(0.0058990506 0.00017416042 0)
(0.0057958127 0.00016546845 0)
(0.0056975479 0.00015705069 0)
(0.0056041022 0.00014890129 0)
(0.005515325 0.0001410147 0)
(0.0054310686 0.00013338561 0)
(0.0053511881 0.00012600893 0)
(0.0052755413 0.00011887972 0)
(0.0052039885 0.0001119932 0)
(0.005136393 0.00010534466 0)
(0.0050726203 9.8929503e-05 0)
(0.0050125384 9.2743178e-05 0)
(0.0049560179 8.6781198e-05 0)
(0.0049029319 8.103911e-05 0)
(0.0048531558 7.5512492e-05 0)
(0.0048065675 7.0196948e-05 0)
(0.0047630473 6.5088097e-05 0)
(0.0047224781 6.0181573e-05 0)
(0.0046847449 5.5473018e-05 0)
(0.0046497356 5.0958085e-05 0)
(0.0046173401 4.6632432e-05 0)
(0.004587451 4.2491725e-05 0)
(0.0045599633 3.8531633e-05 0)
(0.0045347744 3.4747833e-05 0)
(0.0045117842 3.1136008e-05 0)
(0.004490895 2.769185e-05 0)
(0.0044720115 2.4411057e-05 0)
(0.0044550411 2.128934e-05 0)
(0.0044398933 1.832242e-05 0)
(0.0044264802 1.5506032e-05 0)
(0.0044147164 1.2835928e-05 0)
(0.0044045188 1.0307877e-05 0)
(0.0043958068 7.9176678e-06 0)
(0.004388502 5.6611136e-06 0)
(0.0043825287 3.5340522e-06 0)
(0.0043778132 1.5323506e-06 0)
(0.0043742845 -3.4809027e-07 0)
(0.0043718737 -2.1113394e-06 0)
(0.0043705143 -3.7614281e-06 0)
(0.004370142 -5.3023414e-06 0)
(0.0043706948 -6.7380252e-06 0)
(0.0043721129 -8.0723803e-06 0)
(0.0043743389 -9.3092561e-06 0)
(0.0043773172 -1.0452449e-05 0)
(0.0043809946 -1.1505698e-05 0)
(0.00438532 -1.2472687e-05 0)
(0.0043902442 -1.3357032e-05 0)
(0.0043957203 -1.416229e-05 0)
(0.0044017031 -1.4891946e-05 0)
(0.0044081495 -1.5549418e-05 0)
(0.0044150183 -1.613805e-05 0)
(0.0044222703 -1.6661114e-05 0)
(0.0044298677 -1.7121805e-05 0)
(0.0044377751 -1.7523239e-05 0)
(0.0044459583 -1.7868454e-05 0)
(0.004454385 -1.8160408e-05 0)
(0.0044630247 -1.8401975e-05 0)
(0.0044718483 -1.8595947e-05 0)
(0.0044808283 -1.8745033e-05 0)
(0.0044899386 -1.885186e-05 0)
(0.0044991549 -1.8918968e-05 0)