/*--------------------------------*- C++ -*----------------------------------*\
| =========                 |                                                 |
| \\      /  F ield         | OpenFOAM: The Open Source CFD Toolbox           |
|  \\    /   O peration     | Version:  2406                                  |
|   \\  /    A nd           | Website:  www.openfoam.com                      |
|    \\/     M anipulation  |                                                 |
\*---------------------------------------------------------------------------*/
FoamFile
{
    version     2.0;
    format      ascii;
    arch        "LSB;label=32;scalar=64";
    class       volScalarField;
    location    "817";
    object      p;
}
// * * * * * * * * * * * * * * * * * * * * * * * * * * * * * * * * * * * * * //

dimensions      [0 2 -2 0 0 0 0];

internalField   nonuniform List<scalar> 
8800
(
5.2857609e-05
5.1711711e-05
5.4883403e-05
6.3029337e-05
7.4556201e-05
8.7915113e-05
0.00010184012
0.00011538521
0.00012791791
0.00013907016
0.00014867448
0.00015670443
0.00016322503
0.00016835638
0.0001722472
0.0001750561
0.00017693979
0.00017804588
0.00017850897
0.00017844891
0.00017797044
0.0001771637
0.00017610519
0.00017485914
0.00017347875
0.00017200767
0.00017048122
0.00016892762
0.00016736908
0.00016582274
0.00016430156
0.00016281505
0.00016136987
0.00015997043
0.00015861925
0.00015731744
0.00015606495
0.00015486086
0.0001537036
0.00015259108
0.00015152092
0.00015049048
0.000149497
0.00014853764
0.00014760959
0.00014671004
0.00014583627
0.00014498565
0.00014415568
0.00014334395
0.0001425482
0.00014176632
0.00014099631
0.00014023632
0.00013948461
0.0001387396
0.00013799981
0.00013726388
0.00013653057
0.00013579874
0.00013506736
0.00013433548
0.00013360225
0.00013286689
0.00013212871
0.0001313871
0.00013064148
0.00012989137
0.00012913634
0.000128376
0.00012761002
0.00012683811
0.00012606004
0.0001252756
0.00012448462
0.00012368697
0.00012288254
0.00012207125
0.00012125307
0.00012042795
0.0001195959
0.00011875693
0.00011791108
0.00011705839
0.00011619894
0.00011533279
0.00011446003
0.00011358078
0.00011269514
0.00011180322
0.00011090516
0.0001100011
0.00010909116
0.0001081755
0.00010725426
0.0001063276
0.00010539567
0.00010445863
0.00010351663
0.00010256985
0.00010161844
0.00010066256
9.9702371e-05
9.8738034e-05
9.7769708e-05
9.6797551e-05
9.5821717e-05
9.4842361e-05
9.3859634e-05
9.2873685e-05
9.1884659e-05
9.08927e-05
8.9897947e-05
8.8900538e-05
8.7900604e-05
8.6898276e-05
8.589368e-05
8.4886938e-05
8.3878168e-05
8.2867485e-05
8.1855e-05
8.084082e-05
7.9825047e-05
7.8807782e-05
7.7789119e-05
7.676915e-05
7.5747963e-05
7.4725642e-05
7.3702266e-05
7.2677913e-05
7.1652656e-05
7.0626565e-05
6.9599705e-05
6.857214e-05
6.7543929e-05
6.6515128e-05
6.5485792e-05
6.445597e-05
6.3425709e-05
6.2395056e-05
6.1364051e-05
6.0332734e-05
5.9301142e-05
5.826931e-05
5.723727e-05
5.6205051e-05
5.5172683e-05
5.414019e-05
5.3107597e-05
5.2074926e-05
5.1042198e-05
5.000943e-05
4.8976641e-05
4.7943846e-05
4.6911059e-05
4.5878293e-05
4.484556e-05
4.3812871e-05
4.2780235e-05
4.1747659e-05
4.0715153e-05
3.9682721e-05
3.865037e-05
3.7618104e-05
3.6585928e-05
3.5553844e-05
3.4521856e-05
3.3489966e-05
3.2458174e-05
3.1426482e-05
3.0394891e-05
2.93634e-05
2.833201e-05
2.7300719e-05
2.6269527e-05
2.5238432e-05
2.4207433e-05
2.3176528e-05
2.2145715e-05
2.1114991e-05
2.0084354e-05
1.9053802e-05
1.8023331e-05
1.699294e-05
1.5962624e-05
1.4932382e-05
1.3902208e-05
1.2872102e-05
1.1842058e-05
1.0812075e-05
9.7821473e-06
8.7522723e-06
7.7224459e-06
6.6926639e-06
5.6629218e-06
4.633215e-06
3.6035389e-06
2.5738885e-06
1.5442571e-06
5.1468095e-07
5.4410926e-05
5.3177609e-05
5.6114501e-05
6.3728658e-05
7.4429319e-05
8.6883503e-05
0.0001000006
0.00011292017
0.00012503137
0.00013595136
0.00014548161
0.0001535596
0.00016021715
0.00016554701
0.00016967514
0.00017274237
0.00017489199
0.00017626183
0.0001769796
0.00017716049
0.0001769063
0.00017630551
0.00017543395
0.00017435583
0.00017312487
0.00017178553
0.00017037418
0.00016892024
0.00016744715
0.00016597332
0.00016451297
0.0001630768
0.0001616726
0.00016030584
0.00015898004
0.0001576972
0.00015645809
0.00015526256
0.00015410968
0.000152998
0.00015192565
0.00015089046
0.00014989011
0.00014892214
0.00014798404
0.0001470733
0.00014618744
0.00014532407
0.00014448084
0.00014365552
0.00014284601
0.00014205028
0.00014126644
0.00014049274
0.0001397275
0.00013896919
0.0001382164
0.00013746779
0.00013672216
0.0001359784
0.00013523548
0.00013449248
0.00013374855
0.00013300292
0.0001322549
0.00013150386
0.00013074926
0.00012999058
0.00012922739
0.0001284593
0.00012768597
0.00012690711
0.00012612245
0.00012533178
0.00012453494
0.00012373176
0.00012292213
0.00012210597
0.00012128321
0.00012045382
0.00011961778
0.00011877509
0.00011792577
0.00011706987
0.00011620743
0.00011533853
0.00011446324
0.00011358166
0.00011269388
0.00011180001
0.00011090018
0.0001099945
0.00010908311
0.00010816614
0.00010724374
0.00010631604
0.0001053832
0.00010444537
0.0001035027
0.00010255533
0.00010160344
0.00010064716
9.9686658e-05
9.8722085e-05
9.7753594e-05
9.6781337e-05
9.5805464e-05
9.4826125e-05
9.3843466e-05
9.2857631e-05
9.1868761e-05
9.0876997e-05
8.9882473e-05
8.8885323e-05
8.7885676e-05
8.6883658e-05
8.5879394e-05
8.4873001e-05
8.3864596e-05
8.2854292e-05
8.1842195e-05
8.0828412e-05
7.9813043e-05
7.8796186e-05
7.7777934e-05
7.6758377e-05
7.5737602e-05
7.471569e-05
7.3692722e-05
7.2668773e-05
7.1643914e-05
7.0618216e-05
6.9591742e-05
6.8564555e-05
6.7536715e-05
6.6508276e-05
6.5479293e-05
6.4449814e-05
6.3419888e-05
6.2389558e-05
6.1358867e-05
6.0327853e-05
5.9296554e-05
5.8265004e-05
5.7233235e-05
5.6201278e-05
5.5169159e-05
5.4136906e-05
5.3104542e-05
5.207209e-05
5.103957e-05
5.0007001e-05
4.8974401e-05
4.7941785e-05
4.6909168e-05
4.5876563e-05
4.4843982e-05
4.3811436e-05
4.2778935e-05
4.1746486e-05
4.0714098e-05
3.9681778e-05
3.8649531e-05
3.7617362e-05
3.6585276e-05
3.5553276e-05
3.4521365e-05
3.3489546e-05
3.245782e-05
3.1426188e-05
3.0394652e-05
2.9363212e-05
2.8331867e-05
2.7300617e-05
2.6269462e-05
2.52384e-05
2.420743e-05
2.317655e-05
2.2145759e-05
2.1115054e-05
2.0084433e-05
1.9053895e-05
1.8023435e-05
1.6993052e-05
1.5962742e-05
1.4932503e-05
1.3902332e-05
1.2872226e-05
1.1842181e-05
1.0812194e-05
9.7822619e-06
8.7523808e-06
7.7225471e-06
6.6927568e-06
5.6630057e-06
4.6332896e-06
3.6036042e-06
2.5739436e-06
1.5442998e-06
5.1469908e-07
5.1031683e-05
5.0282697e-05
5.3805183e-05
6.1881429e-05
7.2722407e-05
8.5093881e-05
9.803125e-05
0.00011076161
0.00012272341
0.00013355523
0.00014306239
0.00015117787
0.00015792466
0.00016338399
0.00016767065
0.00017091551
0.00017325338
0.00017481521
0.0001757233
0.00017608875
0.00017601039
0.00017557463
0.000174856
0.00017391799
0.00017281405
0.00017158875
0.00017027881
0.00016891418
0.000167519
0.00016611245
0.00016470953
0.00016332176
0.00016195777
0.00016062381
0.00015932417
0.00015806156
0.00015683745
0.00015565229
0.00015450575
0.00015339689
0.00015232433
0.00015128634
0.00015028097
0.00014930613
0.0001483596
0.00014743917
0.0001465426
0.00014566769
0.00014481231
0.00014397439
0.00014315196
0.00014234312
0.00014154609
0.0001407592
0.00013998086
0.00013920962
0.00013844409
0.00013768301
0.00013692519
0.00013616957
0.00013541514
0.000134661
0.0001339063
0.0001331503
0.0001323923
0.0001316317
0.00013086792
0.00013010047
0.00012932891
0.00012855283
0.0001277719
0.00012698581
0.0001261943
0.00012539714
0.00012459415
0.00012378516
0.00012297006
0.00012214874
0.00012132113
0.00012048718
0.00011964686
0.00011880018
0.00011794713
0.00011708774
0.00011622206
0.00011535015
0.00011447207
0.0001135879
0.00011269774
0.00011180169
0.00011089985
0.00010999233
0.00010907927
0.00010816079
0.00010723702
0.00010630809
0.00010537415
0.00010443534
0.0001034918
0.00010254369
0.00010159114
0.0001006343
9.9673333e-05
9.8708375e-05
9.7739577e-05
9.6767084e-05
9.5791043e-05
9.4811596e-05
9.3828885e-05
9.284305e-05
9.1854229e-05
9.0862555e-05
8.9868162e-05
8.8871178e-05
8.7871729e-05
8.6869939e-05
8.5865927e-05
8.4859809e-05
8.3851698e-05
8.2841705e-05
8.1829935e-05
8.081649e-05
7.9801469e-05
7.8784968e-05
7.7767079e-05
7.6747889e-05
7.5727483e-05
7.4705943e-05
7.3683346e-05
7.2659767e-05
7.1635276e-05
7.0609941e-05
6.9583827e-05
6.8556995e-05
6.7529504e-05
6.6501407e-05
6.5472759e-05
6.4443608e-05
6.3414001e-05
6.2383982e-05
6.1353593e-05
6.0322872e-05
5.9291857e-05
5.8260581e-05
5.7229077e-05
5.6197374e-05
5.5165501e-05
5.4133484e-05
5.3101346e-05
5.2069111e-05
5.1036798e-05
5.0004427e-05
4.8972015e-05
4.7939579e-05
4.6907133e-05
4.587469e-05
4.4842262e-05
4.3809861e-05
4.2777497e-05
4.1745177e-05
4.0712911e-05
3.9680705e-05
3.8648565e-05
3.7616496e-05
3.6584503e-05
3.555259e-05
3.452076e-05
3.3489016e-05
3.2457359e-05
3.1425792e-05
3.0394314e-05
2.9362927e-05
2.8331632e-05
2.7300427e-05
2.6269312e-05
2.5238286e-05
2.4207348e-05
2.3176498e-05
2.2145732e-05
2.111505e-05
2.0084448e-05
1.9053926e-05
1.802348e-05
1.6993108e-05
1.5962808e-05
1.4932576e-05
1.390241e-05
1.2872307e-05
1.1842263e-05
1.0812276e-05
9.7823414e-06
8.7524571e-06
7.7226189e-06
6.6928232e-06
5.6630661e-06
4.6333436e-06
3.6036514e-06
2.5739833e-06
1.5443283e-06
5.1470181e-07
3.990434e-05
4.1170553e-05
4.6904284e-05
5.6966687e-05
6.9298574e-05
8.2672465e-05
9.6226505e-05
0.00010930336
0.00012143774
0.00013234174
0.00014187258
0.00014999635
0.00015675509
0.00016223945
0.0001665676
0.00016987017
0.00017227983
0.00017392446
0.00017492314
0.00017538385
0.00017540266
0.00017506365
0.00017443944
0.000173592
0.00017257369
0.00017142826
0.00017019192
0.00016889435
0.00016755958
0.00016620686
0.00016485135
0.00016350485
0.00016217631
0.00016087234
0.00015959763
0.00015835532
0.00015714726
0.00015597431
0.00015483654
0.00015373338
0.00015266378
0.00015162637
0.00015061949
0.00014964132
0.00014868992
0.00014776329
0.00014685941
0.00014597627
0.00014511192
0.00014426443
0.00014343196
0.00014261274
0.0001418051
0.00014100746
0.0001402183
0.00013943624
0.00013865996
0.00013788824
0.00013711996
0.00013635406
0.00013558958
0.00013482563
0.00013406141
0.00013329617
0.00013252924
0.00013176
0.00013098791
0.00013021247
0.00012943323
0.00012864981
0.00012786185
0.00012706904
0.00012627112
0.00012546786
0.00012465907
0.00012384457
0.00012302425
0.00012219798
0.0001213657
0.00012052734
0.00011968287
0.00011883226
0.00011797553
0.0001171127
0.00011624379
0.00011536885
0.00011448795
0.00011360116
0.00011270855
0.00011181023
0.00011090629
0.00010999684
0.00010908199
0.00010816186
0.00010723659
0.00010630629
0.0001053711
0.00010443116
0.00010348661
0.00010253758
0.00010158421
0.00010062666
9.9665051e-05
9.8699541e-05
9.7730266e-05
9.6757369e-05
9.5780989e-05
9.4801267e-05
9.3818338e-05
9.2832339e-05
9.1843403e-05
9.0851661e-05
8.985724e-05
8.8860268e-05
8.7860865e-05
8.6859153e-05
8.5855248e-05
8.4849264e-05
8.3841311e-05
8.2831495e-05
8.1819921e-05
8.0806689e-05
7.9791895e-05
7.8775633e-05
7.7757993e-05
7.6739061e-05
7.571892e-05
7.4697651e-05
7.3675328e-05
7.2652026e-05
7.1627814e-05
7.0602759e-05
6.9576924e-05
6.855037e-05
6.7523154e-05
6.649533e-05
6.5466951e-05
6.4438065e-05
6.3408718e-05
6.2378954e-05
6.1348814e-05
6.0318337e-05
5.9287558e-05
5.8256513e-05
5.7225232e-05
5.6193746e-05
5.5162083e-05
5.4130268e-05
5.3098326e-05
5.2066278e-05
5.1034146e-05
5.0001948e-05
4.8969702e-05
4.7937424e-05
4.6905129e-05
4.5872831e-05
4.4840541e-05
4.3808271e-05
4.277603e-05
4.1743828e-05
4.0711673e-05
3.9679572e-05
3.864753e-05
3.7615555e-05
3.6583649e-05
3.5551818e-05
3.4520064e-05
3.3488391e-05
3.2456801e-05
3.1425295e-05
3.0393875e-05
2.9362541e-05
2.8331294e-05
2.7300133e-05
2.6269059e-05
2.5238071e-05
2.4207167e-05
2.3176347e-05
2.2145609e-05
2.1114951e-05
2.0084372e-05
1.9053869e-05
1.802344e-05
1.6993083e-05
1.5962795e-05
1.4932573e-05
1.3902416e-05
1.2872319e-05
1.1842281e-05
1.0812297e-05
9.7823657e-06
8.7524826e-06
7.7226448e-06
6.6928486e-06
5.6630905e-06
4.6333664e-06
3.6036723e-06
2.5740015e-06
1.5443418e-06
5.1470088e-07
1.9085905e-05
2.5395487e-05
3.5943969e-05
4.9867949e-05
6.4996207e-05
8.0218486e-05
9.4895347e-05
0.00010859021
0.00012101562
0.00013201417
0.00014153325
0.00014959748
0.00015628436
0.00016170424
0.00016598503
0.00016926088
0.00017166436
0.0001733214
0.00017434818
0.00017484954
0.00017491846
0.00017463619
0.00017407285
0.00017328828
0.00017233308
0.00017124958
0.00017007287
0.0001688318
0.00016754981
0.00016624572
0.00016493446
0.00016362773
0.00016233448
0.00016106142
0.00015981341
0.00015859378
0.00015740463
0.00015624709
0.00015512149
0.00015402754
0.00015296448
0.00015193118
0.00015092626
0.00014994812
0.00014899507
0.00014806531
0.00014715704
0.00014626841
0.00014539765
0.00014454297
0.00014370267
0.00014287512
0.00014205874
0.00014125205
0.00014045364
0.00013966218
0.00013887643
0.00013809524
0.00013731751
0.00013654226
0.00013576855
0.00013499553
0.00013422242
0.00013344849
0.0001326731
0.00013189565
0.00013111559
0.00013033244
0.00012954577
0.00012875517
0.00012796032
0.00012716089
0.00012635663
0.0001255473
0.00012473271
0.00012391268
0.00012308708
0.0001222558
0.00012141875
0.00012057587
0.00011972711
0.00011887246
0.0001180119
0.00011714545
0.00011627314
0.000115395
0.00011451109
0.00011362148
0.00011272623
0.00011182544
0.0001109192
0.00011000761
0.00010909077
0.0001081688
0.00010724181
0.00010630994
0.0001053733
0.00010443203
0.00010348626
0.00010253612
0.00010158174
0.00010062328
9.9660848e-05
9.86946e-05
9.7724669e-05
9.6751191e-05
9.5774302e-05
9.4794137e-05
9.3810827e-05
9.2824506e-05
9.1835301e-05
9.084334e-05
8.9848749e-05
8.8851648e-05
8.7852158e-05
8.6850394e-05
8.5846472e-05
8.4840501e-05
8.3832589e-05
8.2822841e-05
8.1811358e-05
8.0798237e-05
7.9783573e-05
7.8767458e-05
7.7749979e-05
7.6731221e-05
7.5711265e-05
7.469019e-05
7.3668071e-05
7.2644978e-05
7.1620982e-05
7.0596146e-05
6.9570533e-05
6.8544203e-05
6.7517212e-05
6.6489614e-05
6.546146e-05
6.4432798e-05
6.3403673e-05
6.2374128e-05
6.1344204e-05
6.0313939e-05
5.9283369e-05
5.8252528e-05
5.7221447e-05
5.6190156e-05
5.5158682e-05
5.4127051e-05
5.3095287e-05
5.2063412e-05
5.1031446e-05
4.9999409e-05
4.8967319e-05
4.793519e-05
4.6903038e-05
4.5870877e-05
4.4838718e-05
4.3806573e-05
4.2774452e-05
4.1742364e-05
4.0710317e-05
3.9678318e-05
3.8646374e-05
3.761449e-05
3.6582672e-05
3.5550923e-05
3.4519246e-05
3.3487646e-05
3.2456123e-05
3.1424681e-05
3.0393319e-05
2.9362041e-05
2.8330845e-05
2.7299732e-05
2.6268701e-05
2.5237754e-05
2.4206887e-05
2.3176101e-05
2.2145394e-05
2.1114764e-05
2.0084211e-05
1.9053731e-05
1.8023322e-05
1.6992984e-05
1.5962712e-05
1.4932505e-05
1.390236e-05
1.2872274e-05
1.1842245e-05
1.0812269e-05
9.7823444e-06
8.7524669e-06
7.7226336e-06
6.6928413e-06
5.6630864e-06
4.6333653e-06
3.6036737e-06
2.5740052e-06
1.5443476e-06
5.1470182e-07
-1.3647791e-05
2.9168366e-06
2.2123955e-05
4.2049785e-05
6.1103303e-05
7.8690888e-05
9.4650302e-05
0.00010894466
0.00012156414
0.00013253237
0.0001419118
0.00014979669
0.00015630398
0.0001615646
0.00016571555
0.00016889343
0.00017122961
0.00017284695
0.00017385774
0.0001743628
0.00017445119
0.0001742006
0.00017367797
0.00017294042
0.0001720362
0.0001710057
0.00016988246
0.00016869407
0.00016746296
0.00016620719
0.00016494119
0.00016367626
0.00016242116
0.00016118249
0.00015996509
0.00015877236
0.00015760654
0.0001564689
0.00015535997
0.00015427968
0.00015322747
0.00015220247
0.0001512035
0.0001502292
0.00014927808
0.00014834856
0.00014743902
0.00014654782
0.00014567332
0.00014481392
0.00014396806
0.00014313422
0.00014231097
0.00014149692
0.00014069076
0.00013989125
0.00013909724
0.00013830763
0.0001375214
0.00013673761
0.00013595537
0.00013517389
0.00013439239
0.00013361021
0.00013282671
0.00013204132
0.00013125351
0.00013046282
0.00012966881
0.00012887111
0.00012806938
0.00012726332
0.00012645266
0.00012563718
0.00012481667
0.00012399098
0.00012315995
0.00012232348
0.00012148148
0.00012063387
0.00011978062
0.00011892168
0.00011805706
0.00011718676
0.0001163108
0.00011542921
0.00011454205
0.00011364936
0.00011275123
0.00011184772
0.00011093892
0.00011002493
0.00010910585
0.00010818179
0.00010725286
0.00010631917
0.00010538084
0.00010443801
0.00010349079
0.00010253931
0.00010158371
0.00010062411
9.9660655e-05
9.8693467e-05
9.7722683e-05
9.6748433e-05
9.5770849e-05
9.4790061e-05
9.3806197e-05
9.2819385e-05
9.1829751e-05
9.0837417e-05
8.9842504e-05
8.8845131e-05
8.7845415e-05
8.6843469e-05
8.5839402e-05
8.4833324e-05
8.3825339e-05
8.2815548e-05
8.180405e-05
8.0790941e-05
7.9776312e-05
7.8760254e-05
7.7742851e-05
7.6724187e-05
7.5704341e-05
7.468339e-05
7.3661406e-05
7.263846e-05
7.1614618e-05
7.0589946e-05
6.9564504e-05
6.8538349e-05
6.7511539e-05
6.6484124e-05
6.5456156e-05
6.4427681e-05
6.3398744e-05
6.2369388e-05
6.1339652e-05
6.0309574e-05
5.9279189e-05
5.8248531e-05
5.721763e-05
5.6186516e-05
5.5155215e-05
5.4123754e-05
5.3092156e-05
5.2060443e-05
5.1028634e-05
4.999675e-05
4.8964807e-05
4.7932821e-05
4.6900808e-05
4.5868779e-05
4.4836749e-05
4.3804727e-05
4.2772724e-05
4.1740749e-05
4.070881e-05
3.9676914e-05
3.8645068e-05
3.7613278e-05
3.6581548e-05
3.5549883e-05
3.4518286e-05
3.3486761e-05
3.2455309e-05
3.1423934e-05
3.0392635e-05
2.9361415e-05
2.8330274e-05
2.7299213e-05
2.6268231e-05
2.5237328e-05
2.4206503e-05
2.3175755e-05
2.2145083e-05
2.1114486e-05
2.0083963e-05
1.905351e-05
1.8023127e-05
1.6992811e-05
1.596256e-05
1.4932372e-05
1.3902244e-05
1.2872174e-05
1.1842158e-05
1.0812195e-05
9.7822805e-06
8.7524128e-06
7.7225884e-06
6.6928044e-06
5.6630572e-06
4.6333435e-06
3.6036592e-06
2.5739979e-06
1.5443491e-06
5.1470617e-07
-6.8242695e-05
-2.7914564e-05
7.698263e-06
3.5757602e-05
5.9306583e-05
7.9233072e-05
9.6170049e-05
0.0001107063
0.00012319988
0.00013387475
0.00014290606
0.00015044885
0.00015664974
0.00016165183
0.00016559477
0.00016861281
0.00017083261
0.00017237133
0.00017333548
0.00017382032
0.00017390986
0.00017367727
0.00017318556
0.00017248846
0.00017163135
0.00017065223
0.00016958271
0.00016844875
0.00016727146
0.00016606792
0.00016485178
0.00016363383
0.00016242243
0.00016122393
0.00016004308
0.00015888322
0.00015774664
0.0001566347
0.00015554808
0.00015448686
0.00015345071
0.00015243892
0.00015145054
0.00015048444
0.00014953932
0.00014861382
0.00014770651
0.00014681593
0.00014594064
0.0001450792
0.00014423021
0.00014339229
0.00014256414
0.00014174449
0.00014093216
0.000140126
0.00013932495
0.00013852799
0.00013773419
0.00013694265
0.00013615257
0.00013536318
0.00013457377
0.00013378371
0.00013299239
0.00013219927
0.00013140386
0.0001306057
0.0001298044
0.00012899957
0.00012819091
0.00012737811
0.00012656092
0.00012573912
0.00012491252
0.00012408094
0.00012324426
0.00012240235
0.00012155513
0.00012070252
0.00011984448
0.00011898098
0.000118112
0.00011723755
0.00011635764
0.00011547229
0.00011458156
0.0001136855
0.00011278416
0.00011187763
0.00011096598
0.0001100493
0.00010912768
0.00010820124
0.00010727007
0.00010633428
0.000105394
0.00010444933
0.00010350041
0.00010254734
0.00010159027
0.0001006293
9.9664585e-05
9.8696233e-05
9.7724378e-05
9.6749146e-05
9.5770664e-05
9.4789058e-05
9.3804452e-05
9.2816969e-05
9.1826731e-05
9.0833856e-05
8.9838463e-05
8.8840666e-05
8.7840578e-05
8.6838308e-05
8.5833965e-05
8.4827653e-05
8.3819474e-05
8.2809526e-05
8.1797906e-05
8.0784706e-05
7.9770016e-05
7.8753923e-05
7.773651e-05
7.6717859e-05
7.5698046e-05
7.4677146e-05
7.3655231e-05
7.2632369e-05
7.1608625e-05
7.0584061e-05
6.9558738e-05
6.8532713e-05
6.7506039e-05
6.6478768e-05
6.5450949e-05
6.4422628e-05
6.3393848e-05
6.2364652e-05
6.1335078e-05
6.0305164e-05
5.9274943e-05
5.8244448e-05
5.7213711e-05
5.6182759e-05
5.5151619e-05
5.4120316e-05
5.3088874e-05
5.2057314e-05
5.1025655e-05
4.9993918e-05
4.8962118e-05
4.7930272e-05
4.6898394e-05
4.5866497e-05
4.4834593e-05
4.3802694e-05
4.277081e-05
4.1738949e-05
4.070712e-05
3.967533e-05
3.8643585e-05
3.7611892e-05
3.6580254e-05
3.5548677e-05
3.4517164e-05
3.3485718e-05
3.2454343e-05
3.1423038e-05
3.0391808e-05
2.9360652e-05
2.8329571e-05
2.7298567e-05
2.6267638e-05
2.5236785e-05
2.4206006e-05
2.3175302e-05
2.2144672e-05
2.1114113e-05
2.0083624e-05
1.9053204e-05
1.8022851e-05
1.6992564e-05
1.5962338e-05
1.4932174e-05
1.3902068e-05
1.2872017e-05
1.184202e-05
1.0812073e-05
9.7821748e-06
8.7523216e-06
7.7225108e-06
6.6927395e-06
5.6630047e-06
4.633303e-06
3.6036305e-06
2.5739815e-06
1.5443475e-06
5.1471427e-07
-0.00020481118
-8.0010135e-05
-6.7178403e-06
3.2713516e-05
6.0964334e-05
8.2704762e-05
9.9875252e-05
0.00011400207
0.0001258813
0.00013591292
0.00014434857
0.00015137381
0.00015714277
0.00016179551
0.00016546414
0.00016827383
0.00017034189
0.00017177662
0.00017267642
0.00017312932
0.00017321296
0.000172995
0.00017253374
0.00017187887
0.00017107243
0.00017014972
0.00016914
0.00016806725
0.0001669511
0.00016580748
0.00016464914
0.00016348619
0.00016232651
0.00016117614
0.0001600396
0.00015892017
0.00015782012
0.00015674088
0.00015568323
0.00015464741
0.00015363326
0.00015264028
0.00015166772
0.00015071466
0.00014978004
0.00014886269
0.00014796141
0.00014707494
0.00014620201
0.00014534139
0.00014449184
0.00014365215
0.00014282116
0.00014199776
0.00014118087
0.00014036947
0.00013956261
0.00013875936
0.00013795888
0.00013716036
0.00013636305
0.00013556626
0.00013476934
0.00013397169
0.00013317276
0.00013237205
0.00013156909
0.00013076347
0.0001299548
0.00012914275
0.00012832699
0.00012750727
0.00012668332
0.00012585495
0.00012502197
0.00012418421
0.00012334154
0.00012249386
0.00012164108
0.00012078312
0.00011991993
0.00011905149
0.00011817778
0.0001172988
0.00011641456
0.00011552508
0.00011463041
0.0001137306
0.0001128257
0.00011191578
0.00011100092
0.0001100812
0.00010915671
0.00010822755
0.00010729382
0.00010635562
0.00010541306
0.00010446627
0.00010351534
0.0001025604
0.00010160158
0.00010063898
9.9672744e-05
9.8702979e-05
9.7729813e-05
9.6753369e-05
9.5773768e-05
9.4791131e-05
9.3805578e-05
9.2817229e-05
9.18262e-05
9.0832607e-05
8.9836563e-05
8.8838179e-05
8.7837564e-05
8.6834825e-05
8.5830066e-05
8.4823388e-05
8.381489e-05
8.2804667e-05
8.1792813e-05
8.0779417e-05
7.9764567e-05
7.8748346e-05
7.7730837e-05
7.6712117e-05
7.5692261e-05
7.4671342e-05
7.3649429e-05
7.2626589e-05
7.1602885e-05
7.0578378e-05
6.9553126e-05
6.8527184e-05
6.7500606e-05
6.6473441e-05
6.5445737e-05
6.4417538e-05
6.3388888e-05
6.2359827e-05
6.1330392e-05
6.0300621e-05
5.9270546e-05
5.82402e-05
5.7209612e-05
5.617881e-05
5.514782e-05
5.4116668e-05
5.3085375e-05
5.2053962e-05
5.102245e-05
4.9990856e-05
4.8959198e-05
4.792749e-05
4.6895748e-05
4.5863983e-05
4.4832209e-05
4.3800436e-05
4.2768673e-05
4.173693e-05
4.0705215e-05
3.9673535e-05
3.8641896e-05
3.7610304e-05
3.6578765e-05
3.5547281e-05
3.4515858e-05
3.3484498e-05
3.2453204e-05
3.1421978e-05
3.0390822e-05
2.9359737e-05
2.8328723e-05
2.7297781e-05
2.6266912e-05
2.5236115e-05
2.420539e-05
2.3174736e-05
2.2144153e-05
2.1113638e-05
2.008319e-05
1.9052809e-05
1.8022492e-05
1.6992238e-05
1.5962044e-05
1.4931909e-05
1.390183e-05
1.2871804e-05
1.1841831e-05
1.0811906e-05
9.7820283e-06
8.7521943e-06
7.7224019e-06
6.6926481e-06
5.6629302e-06
4.633245e-06
3.603589e-06
2.573957e-06
1.5443432e-06
5.1472579e-07
-0.00040563009
-0.00012266211
-5.5906297e-06
4.0907691e-05
6.985166e-05
9.0498869e-05
0.00010610794
0.00011876371
0.0001293941
0.00013839873
0.00014600125
0.00015235699
0.00015759375
0.00016182958
0.00016517814
0.00016774885
0.00016964551
0.00017096473
0.00017179479
0.00017221498
0.00017229545
0.00017209747
0.00017167389
0.00017106988
0.00017032384
0.0001694679
0.00016852858
0.00016752779
0.00016648357
0.00016541057
0.00016432055
0.00016322287
0.00016212487
0.00016103221
0.0001599492
0.000158879
0.00015782385
0.00015678522
0.00015576401
0.0001547606
0.00015377501
0.00015280695
0.00015185588
0.00015092112
0.00015000182
0.00014909706
0.00014820585
0.00014732716
0.00014645994
0.00014560314
0.00014475572
0.00014391666
0.00014308497
0.00014225968
0.00014143987
0.00014062466
0.00013981321
0.00013900471
0.00013819842
0.00013739363
0.00013658968
0.00013578593
0.00013498183
0.00013417682
0.00013337042
0.00013256217
0.00013175165
0.00013093847
0.0001301223
0.00012930281
0.00012847972
0.00012765278
0.00012682177
0.00012598648
0.00012514674
0.00012430241
0.00012345336
0.00012259949
0.00012174071
0.00012087696
0.00012000818
0.00011913436
0.00011825547
0.00011737151
0.0001164825
0.00011558845
0.00011468941
0.00011378541
0.00011287653
0.00011196281
0.00011104433
0.00011012117
0.00010919341
0.00010826116
0.00010732449
0.00010638352
0.00010543834
0.00010448907
0.00010353582
0.00010257869
0.00010161781
0.00010065329
9.9685248e-05
9.8713798e-05
9.773906e-05
9.6761151e-05
9.578019e-05
9.4796292e-05
9.3809573e-05
9.2820147e-05
9.1828128e-05
9.0833625e-05
8.9836749e-05
8.8837606e-05
8.7836302e-05
8.6832939e-05
8.5827618e-05
8.4820436e-05
8.3811489e-05
8.2800869e-05
8.1788666e-05
8.0774966e-05
7.9759855e-05
7.8743412e-05
7.7725718e-05
7.6706847e-05
7.5686872e-05
7.4665863e-05
7.3643887e-05
7.2621008e-05
7.1597288e-05
7.0572787e-05
6.9547559e-05
6.8521659e-05
6.7495137e-05
6.6468042e-05
6.5440421e-05
6.4412317e-05
6.338377e-05
6.2354821e-05
6.1325506e-05
6.0295861e-05
5.9265917e-05
5.8235706e-05
5.7205257e-05
5.6174597e-05
5.5143751e-05
5.4112743e-05
5.3081595e-05
5.2050328e-05
5.101896e-05
4.998751e-05
4.8955994e-05
4.7924427e-05
4.6892823e-05
4.5861195e-05
4.4829553e-05
4.379791e-05
4.2766275e-05
4.1734656e-05
4.0703061e-05
3.9671497e-05
3.8639971e-05
3.7608489e-05
3.6577055e-05
3.5545673e-05
3.4514347e-05
3.3483081e-05
3.2451877e-05
3.1420737e-05
3.0389662e-05
2.9358655e-05
2.8327716e-05
2.7296846e-05
2.6266044e-05
2.5235311e-05
2.4204647e-05
2.317405e-05
2.214352e-05
2.1113056e-05
2.0082657e-05
1.9052321e-05
1.8022047e-05
1.6991832e-05
1.5961676e-05
1.4931576e-05
1.390153e-05
1.2871535e-05
1.1841591e-05
1.0811693e-05
9.7818412e-06
8.7520316e-06
7.7222624e-06
6.6925309e-06
5.6628345e-06
4.6331706e-06
3.6035355e-06
2.5739248e-06
1.5443359e-06
5.1473983e-07
0.00022350154
0.00011909602
8.6366731e-05
8.6752586e-05
9.4849627e-05
0.00010481271
0.00011502297
0.00012464502
0.00013332889
0.00014097462
0.00014757566
0.00015316905
0.00015781867
0.0001616041
0.00016461266
0.00016693387
0.00016865553
0.00016986088
0.0001706268
0.00017102283
0.00017111083
0.000170945
0.00017057227
0.00017003315
0.00016936182
0.0001685867
0.00016773159
0.00016681634
0.00016585729
0.00016486772
0.00016385835
0.00016283776
0.00016181273
0.00016078855
0.00015976927
0.00015875795
0.0001577568
0.00015676735
0.0001557906
0.00015482711
0.00015387706
0.0001529404
0.00015201682
0.00015110587
0.00015020696
0.00014931943
0.00014844251
0.00014757542
0.00014671736
0.00014586748
0.00014502497
0.00014418901
0.00014335878
0.00014253351
0.00014171244
0.00014089483
0.00014007999
0.00013926726
0.00013845599
0.0001376456
0.00013683551
0.0001360252
0.00013521418
0.00013440197
0.00013358815
0.00013277232
0.00013195413
0.00013113322
0.0001303093
0.00012948208
0.00012865133
0.0001278168
0.0001269783
0.00012613565
0.0001252887
0.00012443732
0.00012358139
0.00012272081
0.00012185552
0.00012098545
0.00012011056
0.00011923083
0.00011834623
0.00011745678
0.00011656247
0.00011566334
0.00011475942
0.00011385075
0.00011293739
0.0001120194
0.00011109683
0.00011016978
0.00010923832
0.00010830254
0.00010736252
0.00010641837
0.00010547018
0.00010451807
0.00010356212
0.00010260246
0.00010163918
0.00010067241
9.9702247e-05
9.8728812e-05
9.7752215e-05
9.6772568e-05
9.5789985e-05
9.4804577e-05
9.3816453e-05
9.2825725e-05
9.1832499e-05
9.0836883e-05
8.9838982e-05
8.8838897e-05
8.7836731e-05
8.6832581e-05
8.5826544e-05
8.4818714e-05
8.3809182e-05
8.2798037e-05
8.1785366e-05
8.0771251e-05
7.9755775e-05
7.8739014e-05
7.7721044e-05
7.6701939e-05
7.5681767e-05
7.4660597e-05
7.3638493e-05
7.2615516e-05
7.1591726e-05
7.0567179e-05
6.954193e-05
6.851603e-05
6.7489528e-05
6.6462471e-05
6.5434903e-05
6.4406867e-05
6.3378401e-05
6.2349545e-05
6.1320333e-05
6.0290798e-05
5.9260974e-05
5.8230888e-05
5.720057e-05
5.6170045e-05
5.5139339e-05
5.4108473e-05
5.3077469e-05
5.2046347e-05
5.1015126e-05
4.9983823e-05
4.8952453e-05
4.7921031e-05
4.6889571e-05
4.5858084e-05
4.4826583e-05
4.3795077e-05
4.2763577e-05
4.173209e-05
4.0700624e-05
3.9669186e-05
3.8637782e-05
3.7606418e-05
3.6575098e-05
3.5543827e-05
3.4512609e-05
3.3481446e-05
3.2450341e-05
3.1419296e-05
3.0388313e-05
2.9357393e-05
2.8326538e-05
2.7295747e-05
2.6265022e-05
2.5234362e-05
2.4203766e-05
2.3173235e-05
2.2142767e-05
2.1112362e-05
2.0082019e-05
1.9051735e-05
1.8021511e-05
1.6991343e-05
1.5961231e-05
1.4931172e-05
1.3901166e-05
1.2871208e-05
1.1841299e-05
1.0811434e-05
9.7816133e-06
8.7518335e-06
7.7220926e-06
6.6923883e-06
5.6627182e-06
4.6330799e-06
3.6034701e-06
2.573885e-06
1.544325e-06
5.1475523e-07
0.00018113359
0.0001160554
9.7581658e-05
0.00010109869
0.00010694156
0.00011385287
0.00012163379
0.00012936912
0.00013656241
0.00014303389
0.00014870921
0.00015357242
0.00015765028
0.00016099515
0.00016367273
0.0001657546
0.00016731314
0.00016841817
0.00016913493
0.00016952285
0.00016963508
0.00016951855
0.00016921435
0.00016875745
0.00016817727
0.00016749891
0.00016674356
0.00016592887
0.00016506936
0.00016417694
0.00016326129
0.00016233021
0.00016138992
0.00016044535
0.00015950034
0.00015855781
0.00015761997
0.00015668844
0.00015576433
0.00015484837
0.00015394097
0.00015304229
0.00015215228
0.00015127075
0.00015039739
0.00014953178
0.00014867344
0.00014782185
0.00014697644
0.00014613664
0.00014530185
0.00014447146
0.0001436449
0.00014282156
0.00014200088
0.0001411823
0.00014036529
0.00013954931
0.00013873389
0.00013791854
0.00013710281
0.00013628628
0.00013546856
0.00013464925
0.00013382803
0.00013300454
0.0001321785
0.00013134963
0.00013051766
0.00012968237
0.00012884354
0.00012800098
0.00012715452
0.00012630401
0.00012544932
0.00012459033
0.00012372695
0.0001228591
0.00012198672
0.00012110974
0.00012022815
0.00011934192
0.00011845103
0.0001175555
0.00011665533
0.00011575055
0.0001148412
0.00011392731
0.00011300893
0.00011208614
0.00011115898
0.00011022754
0.00010929189
0.00010835211
0.00010740829