/*--------------------------------*- C++ -*----------------------------------*\
| =========                 |                                                 |
| \\      /  F ield         | OpenFOAM: The Open Source CFD Toolbox           |
|  \\    /   O peration     | Version:  2406                                  |
|   \\  /    A nd           | Website:  www.openfoam.com                      |
|    \\/     M anipulation  |                                                 |
\*---------------------------------------------------------------------------*/
FoamFile
{
    version     2.0;
    format      ascii;
    arch        "LSB;label=32;scalar=64";
    class       volScalarField;
    location    "1446";
    object      T;
}
// * * * * * * * * * * * * * * * * * * * * * * * * * * * * * * * * * * * * * //

dimensions      [0 0 0 0 0 0 0];

internalField   nonuniform List<scalar> 
9800
(
0.99999999
0.99999999
0.99999999
0.99999999
0.99999999
0.99999999
0.99999999
0.99999999
0.99999999
0.99999999
0.99999999
0.99999999
0.99999999
0.99999999
0.99999999
0.99999999
0.99999999
0.99999999
0.99999999
0.99999998
0.99999998
0.99999998
0.99999998
0.99999997
0.99999997
0.99999997
0.99999997
0.99999997
0.99999997
0.99999997
0.99999997
0.99999997
0.99999997
0.99999997
0.99999997
0.99999997
0.99999997
0.99999997
0.99999997
0.99999997
0.99999997
0.99999997
0.99999997
0.99999997
0.99999997
0.99999997
0.99999997
0.99999997
0.99999997
0.99999997
0.99999997
0.99999997
0.99999997
0.99999997
0.99999997
0.99999997
0.99999997
0.99999997
0.99999997
0.99999997
0.99999997
0.99999997
0.99999997
0.99999997
0.99999997
0.99999997
0.99999997
0.99999997
0.99999997
0.99999997
0.99999997
0.99999997
0.99999997
0.99999997
0.99999997
0.99999997
0.99999997
0.99999997
0.99999997
0.99999997
0.99999997
0.99999997
0.99999997
0.99999997
0.99999997
0.99999997
0.99999997
0.99999997
0.99999997
0.99999997
0.99999997
0.99999997
0.99999997
0.99999997
0.99999997
0.99999997
0.99999997
0.99999997
0.99999997
0.99999997
0.99999997
0.99999997
0.99999997
0.99999997
0.99999997
0.99999997
0.99999997
0.99999997
0.99999997
0.99999997
0.99999997
0.99999997
0.99999997
0.99999997
0.99999997
0.99999997
0.99999997
0.99999997
0.99999997
0.99999997
0.99999997
0.99999997
0.99999997
0.99999997
0.99999997
0.99999997
0.99999997
0.99999997
0.99999997
0.99999997
0.99999997
0.99999997
0.99999997
0.99999997
0.99999997
0.99999997
0.99999997
0.99999997
0.99999997
0.99999997
0.99999997
0.99999997
0.99999997
0.99999997
0.99999997
0.99999997
0.99999997
0.99999997
0.99999997
0.99999997
0.99999997
0.99999997
0.99999997
0.99999997
0.99999997
0.99999997
0.99999997
0.99999997
0.99999997
0.99999997
0.99999997
0.99999997
0.99999997
0.99999997
0.99999997
0.99999997
0.99999997
0.99999997
0.99999997
0.99999997
0.99999997
0.99999997
0.99999997
0.99999997
0.99999997
0.99999997
0.99999997
0.99999997
0.99999997
0.99999997
0.99999997
0.99999997
0.99999997
0.99999997
0.99999997
0.99999997
0.99999997
0.99999997
0.99999997
0.99999997
0.99999997
0.99999997
0.99999997
0.99999997
0.99999997
0.99999997
0.99999997
0.99999997
0.99999997
0.99999997
0.99999999
0.99999999
0.99999999
0.99999999
0.99999999
0.99999999
0.99999999
0.99999999
0.99999999
0.99999999
0.99999999
0.99999999
0.99999999
0.99999999
0.99999999
0.99999999
0.99999999
0.99999999
0.99999999
0.99999999
0.99999999
0.99999999
0.99999999
0.99999999
0.99999999
0.99999999
0.99999999
0.99999999
0.99999999
0.99999999
0.99999998
0.99999998
0.99999998
0.99999998
0.99999998
0.99999998
0.99999998
0.99999998
0.99999998
0.99999998
0.99999998
0.99999998
0.99999998
0.99999998
0.99999998
0.99999998
0.99999998
0.99999998
0.99999998
0.99999998
0.99999998
0.99999998
0.99999998
0.99999998
0.99999998
0.99999998
0.99999998
0.99999998
0.99999998
0.99999998
0.99999998
0.99999998
0.99999998
0.99999998
0.99999998
0.99999998
0.99999998
0.99999998
0.99999998
0.99999998
0.99999998
0.99999998
0.99999998
0.99999998
0.99999998
0.99999998
0.99999998
0.99999998
0.99999998
0.99999998
0.99999998
0.99999998
0.99999998
0.99999998
0.99999998
0.99999998
0.99999998
0.99999998
0.99999998
0.99999998
0.99999998
0.99999998
0.99999998
0.99999998
0.99999998
0.99999998
0.99999998
0.99999998
0.99999998
0.99999998
0.99999998
0.99999998
0.99999998
0.99999998
0.99999998
0.99999998
0.99999998
0.99999998
0.99999998
0.99999998
0.99999998
0.99999998
0.99999998
0.99999998
0.99999998
0.99999998
0.99999998
0.99999998
0.99999998
0.99999998
0.99999998
0.99999998
0.99999998
0.99999998
0.99999998
0.99999998
0.99999998
0.99999998
0.99999998
0.99999998
0.99999998
0.99999998
0.99999998
0.99999998
0.99999998
0.99999998
0.99999998
0.99999998
0.99999998
0.99999998
0.99999998
0.99999998
0.99999998
0.99999998
0.99999998
0.99999998
0.99999998
0.99999998
0.99999998
0.99999998
0.99999998
0.99999998
0.99999998
0.99999998
0.99999998
0.99999998
0.99999998
0.99999998
0.99999998
0.99999998
0.99999998
0.99999998
0.99999998
0.99999998
0.99999998
0.99999998
0.99999998
0.99999998
0.99999998
0.99999998
0.99999998
0.99999998
0.99999998
0.99999998
0.99999998
0.99999998
0.99999998
0.99999998
0.99999998
0.99999998
0.99999998
0.99999998
0.99999998
0.99999998
0.99999998
0.99999998
0.99999998
0.99999998
0.99999998
0.99999998
0.99999998
0.99999998
0.99999998
0.99999998
0.99999998
0.99999998
0.99999998
0.99999998
0.99999998
0.99999998
0.99999999
0.99999999
0.99999999
0.99999999
0.99999999
0.99999999
0.99999999
0.99999999
0.99999999
0.99999999
0.99999999
0.99999999
0.99999999
0.99999999
0.99999999
0.99999999
0.99999999
0.99999999
0.99999999
0.99999999
0.99999999
0.99999999
0.99999999
0.99999999
0.99999999
0.99999999
0.99999999
0.99999999
0.99999999
0.99999999
0.99999999
0.99999999
0.99999999
0.99999999
0.99999999
0.99999999
0.99999999
0.99999999
0.99999999
0.99999999
0.99999999
0.99999999
0.99999999
0.99999999
0.99999999
0.99999999
0.99999999
0.99999999
0.99999999
0.99999999
0.99999999
0.99999999
0.99999999
0.99999999
0.99999999
0.99999999
0.99999999
0.99999999
0.99999999
0.99999999
0.99999999
0.99999999
0.99999999
0.99999999
0.99999999
0.99999999
0.99999999
0.99999999
0.99999999
0.99999999
0.99999999
0.99999999
0.99999999
0.99999999
0.99999999
0.99999999
0.99999999
0.99999999
0.99999999
0.99999999
0.99999999
0.99999999
0.99999999
0.99999999
0.99999999
0.99999999
0.99999999
0.99999999
0.99999999
0.99999999
0.99999999
0.99999999
0.99999999
0.99999999
0.99999999
0.99999999
0.99999999
0.99999999
0.99999999
0.99999999
0.99999999
0.99999999
0.99999999
0.99999999
0.99999999
0.99999999
0.99999999
0.99999999
0.99999999
0.99999999
0.99999999
0.99999999
0.99999999
0.99999999
0.99999999
0.99999999
0.99999999
0.99999999
0.99999999
0.99999999
0.99999999
0.99999999
0.99999999
0.99999999
0.99999999
0.99999999
0.99999999
0.99999999
0.99999999
0.99999999
0.99999999
0.99999999
0.99999999
0.99999999
0.99999999
0.99999999
0.99999999
0.99999999
0.99999999
0.99999999
0.99999999
0.99999999
0.99999999
0.99999999
0.99999999
0.99999999
0.99999999
0.99999999
0.99999999
0.99999999
0.99999999
0.99999999
0.99999999
0.99999999
0.99999999
0.99999999
0.99999999
0.99999999
0.99999999
0.99999999
0.99999999
0.99999999
0.99999999
0.99999999
0.99999999
0.99999999
0.99999999
0.99999999
0.99999999
0.99999999
0.99999999
0.99999999
0.99999999
0.99999999
0.99999999
0.99999999
0.99999999
0.99999999
0.99999999
0.99999999
0.99999999
0.99999999
0.99999999
0.99999999
0.99999999
0.99999999
0.99999999
0.99999999
0.99999999
0.99999999
0.99999999
0.99999999
0.99999999
0.99999999
0.99999999
0.99999999
0.99999999
0.99999999
0.99999999
0.99999999
0.99999999
0.99999999
0.99999999
0.99999999
0.99999999
0.99999999
0.99999999
0.99999999
0.99999999
0.99999999
0.99999999
0.99999999
0.99999999
0.99999999
0.99999999
0.99999999
0.99999999
0.99999999
0.99999999
0.99999999
0.99999999
1
1
1
1
1
1
1
1
1
1
1
1
1
1
1
1
1
1
1
1
1
1
1
1
1
1
1
1
1
1
1
1
1
1
0.99999999
0.99999999
0.99999999
0.99999999
0.99999999
0.99999999
0.99999999
0.99999999
0.99999999
0.99999999
0.99999999
0.99999999
0.99999999
0.99999999
0.99999999
0.99999999
0.99999999
0.99999999
0.99999999
0.99999999
0.99999999
0.99999999
0.99999999
0.99999999
0.99999999
0.99999999
0.99999999
0.99999999
0.99999999
0.99999999
0.99999999
0.99999999
0.99999999
0.99999999
0.99999999
0.99999999
0.99999999
0.99999999
0.99999999
0.99999999
0.99999999
0.99999999
0.99999999
0.99999999
0.99999999
0.99999999
0.99999999
0.99999999
0.99999999
0.99999999
0.99999999
0.99999999
0.99999999
0.99999999
0.99999999
0.99999999
0.99999999
0.99999999
0.99999999
0.99999999
0.99999999
0.99999999
0.99999999
0.99999999
0.99999999
0.99999999
0.99999999
0.99999999
0.99999999
0.99999999
0.99999999
0.99999999
0.99999999
0.99999999
0.99999999
0.99999999
0.99999999
0.99999999
0.99999999
0.99999999
0.99999999
0.99999999
0.99999999
0.99999999
0.99999999
0.99999999
0.99999999
0.99999999
0.99999999
0.99999999
0.99999999
0.99999999
0.99999999
0.99999999
0.99999999
0.99999999
0.99999999
0.99999999
0.99999999
0.99999999
0.99999999
0.99999999
0.99999999
0.99999999
0.99999999
0.99999999
0.99999999
0.99999999
0.99999999
0.99999999
0.99999999
0.99999999
0.99999999
0.99999999
0.99999999
0.99999999
0.99999999
0.99999999
0.99999999
0.99999999
0.99999999
0.99999999
0.99999999
0.99999999
0.99999999
0.99999999
0.99999999
0.99999999
0.99999999
0.99999999
0.99999999
0.99999999
0.99999999
0.99999999
0.99999999
0.99999999
0.99999999
0.99999999
0.99999999
0.99999999
0.99999999
0.99999999
0.99999999
0.99999999
0.99999999
0.99999999
0.99999999
0.99999999
0.99999999
0.99999999
0.99999999
0.99999999
0.99999999
0.99999999
0.99999999
0.99999999
0.99999999
0.99999999
0.99999999
0.99999999
0.99999999
0.99999999
1
1
1
1
1
1
1
1
1
1
1
1
1
1
1
1
1
1
1
1
1
1
1
1
1
1
1
1
1
1
1
1
1
1
1
1
1
1
1
1
1
1
1
1
1
1
1
1
1
1
1
1
1
1
1
1
1
1
1
1
1
1
1
1
1
1
1
1
1
1
1
1
1
1
1
1
1
1
1
1
1
1
1
1
1
1
1
1
1
1
1
1
1
1
1
1
1
1
1
1
1
1
1
1
1
1
1
1
1
1
1
1
1
1
1
1
1
1
1
1
1
1
1
1
1
1
1
1
1
1
1
1
1
1
1
1
1
1
1
1
1
1
1
1
1
1
1
1
1
1
1
1
1
1
1
1
1
1
1
1
1
1
1
1
1
1
1
1
1
1
1
1
1
1
1
1
1
1
1
1
1
1
1
0.99999999
0.99999999
0.99999999
0.99999999
0.99999999
0.99999999
0.99999999
0.99999999
0.99999999
0.99999999
0.99999999
0.99999999
0.99999999
0.99999999
0.99999999
1
1
1
1
1
1
1
1
1
1
1
1
1
1
1
1
1
1
1
1
1
1
1
1
1
1
1
1
1
1
1
1
1
1
1
1
1
1
1
1
1
1
1
1
1
1
1
1
1
1
1
1
1
1
1
1
1
1
1
1
1
1
1
1
1
1
1
1
1
1
1
1
1
1
1
1
1
1
1
1
1
1
1
1
1
1
1
1
1
1
1
1
1
1
1
1
1
1
1
1
1
1
1
1
1
1
1
1
1
1
1
1
1
1
1
1
1
1
1
1
1
1
1
1
1
1
1
1
1
1
1
1
1
1
1
1
1
1
1
1
1
1
1
1
1
1
1
1
1
1
1
1
1
1
1
1
1
1
1
1
1
1
1
1
1
1
1
1
1
1
1
1
1
1
1
1
1
1
1
1
1
1
1
1
1
0.99999998
0.99999999
0.99999999
0.99999999
0.99999999
0.99999999
0.99999999
0.99999999
0.99999999
0.99999999
0.99999999
0.99999999
1
1
1
1
1
1
1
1
1
1
1
1
1
1
1
1
1
1
1
1
1
1
1
1
1
1
1
1
1
1
1
1
1
1
1
1
1
1
1
1
1
1
1
1
1
1
1
1
1
1
1
1
1
1
1
1
1
1
1
1
1
1
1
1
1
1
1
1
1
1
1
1
1
1
1
1
1
1
1
1
1
1
1
1
1
1
1
1
1
1
1
1
1
1
1
1
1
1
1
1
1
1
1
1
1
1
1
1
1
1
1
1
1
1
1
1
1
1
1
1
1
1
1
1
1
1
1
1
1
1
1
1
1
1
1
1
1
1
1
1
1
1
1
1
1
1
1
1
1
1
1
1
1
1
1
1
1
1
1
1
1
1
1
1
1
1
1
1
1
1
1
1
1
1
1
1
1
1
1
1
1
1
1
1
1
1
1
1
0.99999998
0.99999998
0.99999999
0.99999999
0.99999999
0.99999999
0.99999999
0.99999999
0.99999999
0.99999999
1
1
1
1
1
1
1
1
1
1
1
1
1
1
1
1
1
1
1
1
1
1
1
1
1
1
1
1
1
1
1
1
1
1
1
1
1
1
1
1
1
1
1
1
1
1
1
1
1
1
1
1
1
1
1
1
1
1
1
1
1
1
1
1
1
1
1
1
1
1
1
1
1
1
1
1
1
1
1
1
1
1
1
1
1
1
1
1
1
1
1
1
1
1
1
1
1
1
1
1
1
1
1
1
1
1
1
1
1
1
1
1
1
1
1
1
1
1
1
1
1
1
1
1
1
1
1
1
1
1
1
1
1
1
1
1
1
1
1
1
1
1
1
1
1
1
1
1
1
1
1
1
1
1
1
1
1
1
1
1
1
1
1
1
1
1
1
1
1
1
1
1
1
1
1
1
1
1
1
1
1
1
1
1
1
1
1
1
1
1
0.99999998
0.99999998
0.99999999
0.99999999
0.99999999
0.99999999
0.99999999
1
1
1
1
1
1
1
1
1
1
1
1
1
1
1
1
1
1
1
1
1
1
1
1
1
1
1
1
1
1
1
1
1
1
1
1
1
1
1
1
1
1
1
1
1
1
1
1
1
1
1
1
1
1
1
1
1
1
1
1
1
1
1
1
1
1
1
1
1
1
1
1
1
1
1
1
1
1
1
1
1
1
1
1
1
1
1
1
1
1
1
1
1
1
1
1
1
1
1
1
1
1
1
1
1
1
1
1
1
1
1
1
1
1
1
1
1
1
1
1
1
1
1
1
1
1
1
1
1
1
1
1
1
1
1
1
1
1
1
1
1
1
1
1
1
1
1
1
1
1
1
1
1
1
1
1
1
1
1
1
1
1
1
1
1
1
1
1
1
1
1
1
1
1
1
1
1
1
1
1
1
1
1
1
1
1
1
1
1
1
1
1
1
0.99999998
0.99999999
0.99999999
1
1
1
1
1
1
1
1
1
1
1
1
1
1
1
1
1
1
1
1
1
1
1
1
1
1
1
1
1
1
1
1
1
1
1
1
1
1
1
1
1
1
1
1
1
1
1
1
1
1
1
1
1
1
1
1
1
1
1
1
1
1
1
1
1
1
1
1
1
1
1
1
1
1
1
1
1
1
1
1
1
1
1
1
1
1
1
1
1
1
1
1
1
1
1
1
1
1
1
1
1
1
1
1
1
1
1
1
1
1
1
1
1
1
1
1
1
1
1
1
1
1
1
1
1
1
1
1
1
1
1
1
1
1
1
1
1
1
1
1
1
1
1
1
1
1
1
1
1
1
1
1
1
1
1
1
1
1
1
1
1
1
1
1
1
1
1
1
1
1
1
1
1
1
1
1
1
1
1
1
1
1
1
1
1
1
1
1
1
1
1
1
1
1
1
1
1
1
1
1
1
1
1
1
1
1
1
1
1
1
1
1
1
1
1
1
1
1
1
1
1
1
1
1
1
1
1
1
1
1
1
1
1
1
1
1
1
1
1
1
1
1
1
1
1
1
1
1
1
1
1
1
1
1
1
1
1
1
1
1
1
1
1
1
1
1
1
1
1
1
1
1
1
1
1
1
1
1
1
1
1
1
1
1
1
1
1
1
1
1
1
1
1
1
1
1
1
1
1
1
1
1
1
1
1
1
1
1
1
1
1
1
1
1
1
1
1
1
1
1
1
1
1
1
1
1
1
1
1
1
1
1
1
1
1
1
1
1
1
1
1
1
1
1
1
1
1
1
1
1
1
1
1
1
1
1
1
1
1
1
1
1
1
1
1
1
1
1
1
1
1
1
1
1
1
1
1
1
1
1
1
1
1
1
1
1
1
1
1
1
1
1
1
1
1
1
1
1
1
1
1
1
1
1
1
1
1
1
1
1
1
1
1
1
1
1
1
1
1
1
1
1
1
1
1
1
1
1
1
1
1
1
1
1
1
1
1
1
1
1
1
1
1
1
1
1
1
1
1
1
1
1
1
1
1
1
1
1
1
1
1
1
1
1
1
1
1
1
1
1
1
1
1
1
1
1
1
1
1
1
1
1
1
1
1
1
1
1
1
1
1
1
1
1
1
1
1
1
1
1
1
1
1
1
1
1
1
1
1
1
1
1
1
1
1
1
1
1
1
1
1
1
1
1
1
1
1
1
1
1
1
1
1
1
1
1
1
1
1
1
1
1
1
1
1
1
1
1
1
1
1
1
1
1
1
1
1
1
1
1
1
1
1
1
1
1
1
1
1
1
1
1
1
1
1
1
1
1
1
1
1
1
1
1
1
1
1
1
1
1
1
1
1
1
1
1
1
1
1
1
1
1
1
1
1
1
1
1
1
1
1
1
1
1
1
1
1
1
1
1
1
1
1
1
1
1
1
1
1
1
1
1
1
1
1
1
1
1
1
1
1
1
1
1
1
1
1
1
1
1
1
1
1
1
1
1
1
1
1
1
1
1
1
1
1
1
1
1
1
1
1
1
1
1
1
1
1
1
1
1
1
1
1
1
1
1
1
1
1
1
1
1
1
1
1
1
1
1
1
1
1
1
1
1
1
1
1
1
1
1
1
1
1
1
1
1
1
1
1
1
1
1
1
1
1
1
1
1
1
1
1
1
1
1
1
1
1
1
1
1
1
1
1
1
1
1
1
1
1
1
1
1
1
1
1
1
1
1
1
1
1
1
1
1
1
1
1
1
1
1
1
1
1
1
1
1
1
1
1
1
1
1
1
1
1
1
1
1
1
1
1
1
1
1
1
1
1
1
1
1
1
1
1
1
1
1
1
1
1
1
1
1
1
1
1
1
1
1
1
1
1
1
1
1
1
1
1
1
1
1
1
1
1
1
1
1
1
1
1
1
1
1
1
1
1
1
1
1
1
1
1
1
1
1
1
1
1
1
1
1
1
1
1
1
1
1
1
1
1
1
1
1
1
1
1
1
1
1
1
1
1
1
1
1
1
1
1
1
1
1
1
1
1
1
1
1
1
1
1
1
1
1
1
1
1
1
1
1
1
1
1
1
1
1
1
1
1
1
1
1
1
1
1
1
1
1
1
1
1
1
1
1
1
1
1
1
1
1
1
1
1
1
1
1
1
1
1
1
1
1
1
1
1
1
1
1
1
1
1
1
1
1
1
1
1
1
1
1
1
1
1
1
1
1
1
1
1
1
1
1
1
1
1
1
1
1
1
1
1
1
1
1
1
1
1
1
1
1
1
1
1
1
1
1
1
1
1
1
1
1
1
1
1
1
1
1
1
1
1
1
1
1
1
1
1
1
1
1
1
1
1
1
1
1
1
1
1
1
1
1
1
1
1
1
1
1
1
1
1
1
1
1
1
1
1
1
1
1
1
1
1
1
1
1
1
1
1
1
1
1
1
1
1
1
1
1
1
1
1
1
1
1
1
1
1
1
1
1
1
1
1
1
1
1
1
1
1
1
1
1
1
1
1
1
1
1
1
1
1
1
1
1
1
1
1
1
1
1
1
1
1
1
1
1
1
1
1
1
1
1
1
1
1
1
1
1
1
1
1
1
1
1
1
1
1
1
1
1
1
1
1
1
1
1
1
1
1
1
1
1
1
1
1
1
1
1
1
1
1
1
1
1
1
1
1
1
1
1
1
1
1
1
1
1
1
1
1
1
1
1
1
1
1
1
1
1
1
1
1
1
1
1
1
1
1
1
1
1
1
1
1
1
1
1
1
1
1
1
1
1
1
1
1
1
1
1
1
1
1
1
1
1
1
1
1
1
1
1
1
1
1
1
1
1
1
1
1
1
1
1
1
1
1
1
1
1
1
1
1
1
1
1
1
1
1
1
1
1
1
1
1
1
1
1
1
1
1
1
1
1
1
1
1
1
1
1
1
1
1
1
1
1
1
1
1
1
1
1
1
1
1
1
1
1
1
1
1
1
1
1
1
1
1
1
1
1
1
1
1
1
1
1
1
1
1
1
1
1
1
1
1
1
1
1
1
1
1
1
1
1
1
1
1
1
1
1
1
1
1
1
1
1
1
1
1
1
1
1
1
1
1
1
1
1
1
1
1
1
1
1
1
1
1
1
1
1
1
1
1
1
1
1
1
1
1
1
1
1
1
1
1
1
1
1
1
1
1
1
1
1
1
1
1
1
1
1
1
1
1
1
1
1
1
1
1
1
1
1
1
1
1
1
1
1
1
1
1
1
1
1
1
1
1
1
1
1
1
1
1
1
1
1
1
1
1
1
1
1
1
1
1
1
1
1
1
1
1
1
1
1
1
1
1
1
1
1
1
1
1
1
1
1
1
1
1
1
1
1
1
1
1
1
1
1
1
1
1
1
1
1
1
1
1
1
1
1
1
1
1
1
1
1
1
1
1
1
1
1
1
1
1
1
1
1
1
1
1
1
1
1
1
1
1
1
1
1
1
1
1
1
1
1
1
1
1
1
1
1
1
1
1
1
1
1
1
1
1
1
1
1
1
1
1
1
1
1
1
1
1
1
1
1
1
1
1
1
1
1
1
1
1
1
1
1
1
1
1
1
1
1
1
1
1
1
1
1
1
1
1
1
1
1
1
1
1
1
1
1
1
1
1
1
1
1
1
1
1
1
1
1
1
1
1
1
1
1
1
1
1
1
1
1
1
1
1
1
1
1
1
1
1
1
1
1
1
1
1
1
1
1
1
1
1
1
1
1
1
1
1
1
1
1
1
1
1
1
1
1
1
1
1
1
1
1
1
1
1
1
1
1
1
1
1
1
1
1
1
1
1
1
1
1
1
1
1
1
1
1
1
1
1
1
1
1
1
1
1
1
1
1
1
1
1
1
1
1
1
1
1
1
1
1
1
1
1
1
1
1
1
1
1
1
1
1
1
1
1
1
1
1
1
1
1
1
1
1
1
1
1
1
1
1
1
1
1
1
1
1
1
1
1
1
1
1
1
1
1
1
1
1
1
1
1
1
1
1
1
1
1
1
1
1
1
1
1
1
1
1
1
1
1
1
1
1
1
1
1
1
1
1
1
1
1
1
1
1
1
1
1
1
1
1
1
1
1
1
1
1
1
1
1
1
1
1
1
1
1
1
1
1
1
1
1
1
1
1
1
1
1
1
1
1
1
1
1
1
1
1
1
1
1
1
1
1
1
1
1
1
1
1
1
1
1
1
1
1
1
1
1
1
1
1
1
1
1
1
1
1
1
1
1
1
1
1
1
1
1
1
1
1
1
1
1
1
1
1
1
1
1
1
1
1
1
1
1
1
1
1
1
1
1
1
1
1
1
1
1
1
1
1
1
1
1
1
1
1
1
1
1
1
1
1
1
1
1
1
1
1
1
1
1
1
1
1
1
1
1
1
1
1
1
1
1
1
1
1
1
1
1
1
1
1
1
1
1
1
1
1
1
1
1
1
1
1
1
1
1
1
1
1
1
1
1
1
1
1
1
1
1
1
1
1
1
1
1
1
1
0.99999999
0.99999999
0.99999999
0.99999999
0.99999999
0.99999999
0.99999999
0.99999999
0.99999999
0.99999999
1
1
1
1
1
1
0.99999999
0.99999999
0.99999999
0.99999999
0.99999999
0.99999999
0.99999999
0.99999998
0.99999998
0.99999998
0.99999998
0.99999998
0.99999998
0.99999997
0.99999997
0.99999997
0.99999997
0.99999997
0.99999997
0.99999997
0.99999997
0.99999997
0.99999997
0.99999997
0.99999997
0.99999997
0.99999997
0.99999997
0.99999997
0.99999997
0.99999998
0.99999998
0.99999998
0.99999998
0.99999998
0.99999998
0.99999998
0.99999999
0.99999999
0.99999999
0.99999999
0.99999999
0.99999999
0.99999999
0.99999999
0.99999999
0.99999999
0.99999999
0.99999999
0.99999999
1
1
1
1
1
1
1
1
1
1
1
1
1
1
1
1
1
1
1
1
1
1
1
1
1
1
1
1
1
1
1
1
1
1
1
1
1
1
1
1
1
1
1
1
1
1
1
1
1
1
1
1
1
1
1
1
1
1
1
1
1
1
1
1
1
1
1
1
1
1
1
1
1
1
1
1
1
1
1
1
1
1
1
1
1
1
1
0.99999999
0.99999999
0.99999999
0.99999999
0.99999999
0.99999999
0.99999999
0.99999999
0.99999999
0.99999998
0.99999998
0.99999998
0.99999998
0.99999998
0.99999998
0.99999997
0.99999997
0.99999997
0.99999997
0.99999996
0.99999996
0.99999996
0.99999996
0.99999996
0.99999995
0.99999995
0.99999995
0.99999995
0.99999994
0.99999994
0.99999994
0.99999994
0.99999993
0.99999993
0.99999993
0.99999992
0.99999992
0.99999992
0.99999992
0.99999992
0.99999991
0.99999991
0.99999991
0.99999991
0.9999999
0.9999999
0.9999999
0.9999999
0.99999989
0.99999989
0.99999989
0.99999989
0.99999989
0.99999988
0.99999988
0.99999988
0.99999988
0.99999163
0.99998727
0.99998474
0.99998327
0.99998235
0.99998171
0.99998118
0.99998069
0.99998019
0.99997967
0.99997911
0.99997854
0.99997795
0.99997737
0.99997682
0.9999763
0.99997585
0.99997548
0.99997521
0.99997506
0.99997503
0.99997513
0.99997538
0.99997577
0.99997629
0.99997694
0.99997771
0.99997858
0.99997953
0.99998056
0.99998164
0.99998275
0.99998387
0.999985
0.99998612
0.9999872
0.99998825
0.99998926
0.99999021
0.99999111
0.99999195
0.99999273
0.99999345
0.99999411
0.99999471
0.99999526
0.99999576
0.99999621
0.99999661
0.99999697
0.9999973
0.99999759
0.99999785
0.99999808
0.99999828
0.99999846
0.99999862
0.99999877
0.99999889
0.999999
0.9999991
0.99999919
0.99999927
0.99999934
0.9999994
0.99999946
0.9999995
0.99999955
0.99999959
0.99999962
0.99999965
0.99999968
0.9999997
0.99999972
0.99999974
0.99999976
0.99999978
0.99999979
0.9999998
0.99999982
0.99999983
0.99999984
0.99999984
0.99999985
0.99999986
0.99999986
0.99999987
0.99999988
0.99999988
0.99999988
0.99999989
0.99999989
0.9999999
0.9999999
0.9999999
0.9999999
0.99999991
0.99999991
0.99999991
0.99999991
0.99999991
0.99999991
0.99999991
0.99999991
0.99999992
0.99999992
0.99999992
0.99999992
0.99999992
0.99999992
0.99999992
0.99999992
0.99999992
0.99999992
0.99999992
0.99999992
0.99999992
0.99999992
0.99999992
0.99999992
0.99999992
0.99999992
0.99999991
0.99999991
0.99999991
0.99999991
0.99999991
0.99999991
0.99999991
0.99999991
0.99999991
0.99999991
0.9999999
0.9999999
0.99999989
0.99999988
0.99999987
0.99999985
0.99999984
0.99999982
0.99999981
0.99999979
0.99999977
0.99999975
0.99999973
0.9999997
0.99999968
0.99999965
0.99999963
0.9999996
0.99999958
0.99999955
0.99999952
0.99999949
0.99999946
0.99999943
0.9999994
0.99999937
0.99999934
0.99999931
0.99999927
0.99999924
0.99999921
0.99999918
0.99999915
0.99999912
0.99999908
0.99999905
0.99999902
0.99999899
0.99999896
0.99999893
0.9999989
0.99999887
0.99999884
0.99999881
0.99999878
0.99999875
0.99999873
0.9999987
0.99999867
0.99999865
0.99999862
0.99999859
0.99999857
0.99999855
0.99999852
0.9999985
0.99999847
0.99999845
0.99999843
0.99999841
0.99999839
0.99999836
0.99999834
0.99999832
0.9999983
0.99999828
0.99999826
0.99999824
0.84038159
0.91384342
0.93981154
0.95366541
0.96222314
0.96795572
0.97201469
0.97500632
0.97728149
0.97905938
0.98048475
0.98165726
0.9826479
0.9835085
0.98427765
0.98498437
0.98565048
0.98629224
0.98692139
0.987546
0.98817106
0.98879905
0.98943033
0.99006361
0.99069633
0.99132505
0.99194581
0.99255437
0.99314659
0.99371854
0.99426674
0.99478828
0.99528085
0.99574278
0.99617308
0.99657133
0.99693769
0.99727278
0.99757762
0.99785355
0.99810216
0.99832518
0.99852445
0.99870187
0.9988593
0.99899859
0.9991215
0.9992297
0.99932475
0.9994081
0.99948109
0.99954491
0.99960066
0.99964933
0.99969179
0.99972881
0.9997611
0.99978925
0.99981379
0.99983521
0.9998539
0.99987023
0.9998845
0.99989699
0.99990792
0.99991751
0.99992592
0.99993332
0.99993983
0.99994556
0.99995063
0.9999551
0.99995906
0.99996258
0.9999657
0.99996848
0.99997095
0.99997316
0.99997513
0.9999769
0.99997849
0.99997991
0.99998119
0.99998235
0.99998339
0.99998433
0.99998518
0.99998595
0.99998665
0.99998729
0.99998786
0.99998839
0.99998887
0.9999893
0.9999897
0.99999007
0.9999904
0.9999907
0.99999098
0.99999123
0.99999147
0.99999168
0.99999187
0.99999205
0.99999221
0.99999236
0.9999925
0.99999262
0.99999273
0.99999283
0.99999293
0.99999301
0.99999308
0.99999315
0.99999321
0.99999327
0.99999331
0.99999336
0.99999339
0.99999342
0.99999345
0.99999347
0.99999349
0.99999351
0.99999352
0.99999353
0.99999353
0.99999353
0.99999353
0.99999353
0.99999353
0.99999352
0.9999935
0.99999346
0.99999341
0.99999334
0.99999326
0.99999317
0.99999306
0.99999294
0.99999282
0.99999268
0.99999253
0.99999238
0.99999222
0.99999205
0.99999188
0.9999917
0.99999151
0.99999132
0.99999113
0.99999093
0.99999073
0.99999053
0.99999032
0.99999012
0.99998991
0.9999897
0.99998949
0.99998928
0.99998907
0.99998886
0.99998865
0.99998844
0.99998823
0.99998803
0.99998782
0.99998762
0.99998742
0.99998722
0.99998703
0.99998684
0.99998665
0.99998646
0.99998628
0.9999861
0.99998593
0.99998575
0.99998558
0.99998542
0.99998525
0.99998509
0.99998494
0.99998479
0.99998464
0.99998449
0.99998435
0.99998421
0.99998407
0.99998393
0.9999838
0.99998367
0.99998355
0.99998342
0.9999833
0.99998318
0.99998306
0.99998295
0.99998283
0.99998272
0.00133873
0.38270449
0.59851583
0.70683592
0.76656842
0.80389659
0.82909696
0.84707808
0.86047818
0.87083978
0.87912519
0.88596646
0.89179577
0.89691795
0.90155285
0.90586101
0.90995987
0.91393433
0.91784397
0.92172814
0.92560991
0.92949915
0.93339524
0.93728937
0.94116671
0.94500829
0.94879275
0.95249781
0.95610161
0.95958371
0.96292589
0.96611275
0.96913202
0.97197476
0.97463526
0.97711096
0.97940214
0.98151161
0.98344435
0.98520708
0.98680791
0.98825594
0.98956096
0.99073313
0.99178272
0.99271992
0.99355464
0.99429639
0.99495421
0.99553657
0.99605132
0.99650574
0.99690645
0.9972595
0.99757036
0.99784393
0.99808461
0.99829634
0.9984826
0.99864649
0.99879075
0.99891778
0.99902971
0.9991284
0.99921549
0.99929242
0.99936044
0.99942064
0.99947398
0.99952131
0.99956336
0.99960075
0.99963406
0.99966377
0.99969031
0.99971405
0.99973531
0.99975438
0.99977151
0.99978693
0.99980081
0.99981334
0.99982466
0.9998349
0.99984417
0.99985258
0.99986022
0.99986716
0.99987348
0.99987924
0.99988449
0.99988928
0.99989366
0.99989766
0.99990133
0.99990468
0.99990776
0.99991057
0.99991315
0.99991552
0.99991769
0.99991968
0.99992151
0.99992318
0.99992472
0.99992612
0.99992741
0.99992858
0.99992965
0.99993063
0.99993152
0.99993233
0.99993307
0.99993373
0.99993433
0.99993487
0.99993535
0.99993578
0.99993616
0.99993649
0.99993678
0.99993703
0.99993725
0.99993743
0.99993757
0.99993769
0.99993778
0.99993784
0.99993788
0.99993789
0.99993788
0.99993786
0.99993781
0.99993767
0.99993744
0.99993714
0.99993676
0.99993632
0.99993581
0.99993524
0.99993463
0.99993396
0.99993325
0.9999325
0.99993171
0.99993089
0.99993004
0.99992916
0.99992825
0.99992733
0.99992639
0.99992544
0.99992447
0.99992349
0.9999225
0.99992151
0.99992051
0.99991951
0.99991851
0.99991751
0.99991652
0.99991553
0.99991455
0.99991357
0.9999126
0.99991165
0.9999107
0.99990976
0.99990884
0.99990793
0.99990704
0.99990616
0.9999053
0.99990445
0.99990362
0.9999028
0.999902
0.99990122
0.99990045
0.9998997
0.99989897
0.99989825
0.99989755
0.99989686
0.9998962
0.99989554
0.9998949
0.99989428
0.99989367
0.99989307
0.99989249
0.99989192
0.99989136
0.99989081
0.99989028
0.99988975
0.99988924
0.99988873
0.99988823
0.99988773
3.9264366e-05
0.00032304357
0.00059873956
0.081315654
0.16367042
0.23208957
0.2877052
0.33357284
0.37251499
0.40681301
0.43565322
0.46062788
0.48299071
0.50364637
0.52325184
0.54228172
0.56107151
0.57984758
0.5987486
0.61784216
0.63713832
0.65660128
0.67616
0.69571782
0.71516131
0.73436833
0.753215
0.77158174
0.7893581
0.80644643
0.82276447
0.83824675
0.85284518
0.86652869
0.87928234
0.89110584
0.90201186
0.91202404
0.92117499
0.92950438
0.93705701
0.94388121
0.95002727
0.95554621
0.96048869
0.9649042
0.96884035
0.97234242
0.975453
0.9782118
0.98065552
0.9828179
0.9847297
0.98641884
0.98791054
0.98922746
0.9903899
0.99141599
0.99232186
0.99312181
0.99382851
0.99445317
0.99500566
0.99549466
0.99592785
0.99631193
0.99665281
0.99695567
0.99722505
0.99746494
0.99767882
0.99786975
0.99804043
0.99819318
0.9983301
0.99845297
0.99856339
0.99866277
0.99875232
0.99883312
0.99890613
0.99897219
0.99903204
0.99908632
0.99913561
0.99918044
0.99922124
0.99925842
0.99929234
0.99932331
0.99935162
0.99937751
0.99940122
0.99942294
0.99944286
0.99946113
0.99947789
0.99949328
0.99950742
0.9995204
0.99953233
0.99954329
0.99955336
0.99956261
0.9995711
0.99957888
0.99958603
0.99959257
0.99959856
0.99960403
0.99960903
0.99961358
0.99961773
0.99962148
0.99962489
0.99962796
0.99963071
0.99963319
0.99963539
0.99963734
0.99963905
0.99964055
0.99964184
0.99964294
0.99964386
0.99964462
0.99964523
0.99964569
0.99964601
0.99964622
0.9996463
0.99964628
0.99964618
0.99964584
0.99964517
0.9996442
0.99964294
0.99964142
0.99963965
0.99963767
0.99963549
0.99963312
0.99963059
0.99962791
0.99962508
0.99962214
0.99961909
0.99961594
0.99961271
0.9996094
0.99960604
0.99960262
0.99959916
0.99959566
0.99959214
0.99958861
0.99958507
0.99958152
0.99957798
0.99957446
0.99957095
0.99956746
0.999564
0.99956057
0.99955718
0.99955383
0.99955052
0.99954726
0.99954405
0.99954089
0.99953778
0.99953473
0.99953174
0.99952881
0.99952593
0.99952312
0.99952036
0.99951767
0.99951504
0.99951247
0.99950995
0.9995075
0.99950511
0.99950277
0.99950049
0.99949826
0.99949609
0.99949397
0.9994919
0.99948988
0.99948791
0.99948598
0.99948409
0.99948225
0.99948044
0.99947866
0.99947693
0.99947522
0.99947353
0.99947187
1.0468364e-07
2.6301978e-07
4.4580406e-07
4.5859604e-05
9.2584979e-05
0.00013991301
0.00018851711
0.00023908689
0.00029227709
0.00034954827
0.0037234896
0.010064374
0.019188659
0.031130605
0.046050326
0.063824666
0.084154125
0.10697061
0.13217615
0.15963665
0.18917939
0.22059365
0.25363373
0.28802408
0.32346599
0.35964534
0.39624106
0.43293366
0.4694135
0.50538829
0.54058958
0.5747779
0.60774646
0.63932346
0.66937289
0.69779404
0.72452
0.74951517
0.77277222
0.79430849
0.81416232
0.83238925
0.84905838
0.86424893
0.87804717
0.89054363
0.90183076
0.91200095
0.92114492
0.92935049
0.93670159
0.94327763
0.94915307
0.95439712
0.95907373
0.96324158
0.96695426
0.97026045
0.97320421
0.97582524
0.97815924
0.98023817
0.98209061
0.98374202
0.98521509
0.98652997
0.98770454
0.98875465
0.98969434
0.99053604
0.99129074
0.99196813
0.99257683
0.9931244
0.99361756
0.99406225
0.99446369
0.99482653
0.99515488
0.99545236
0.9957222
0.99596725
0.99619004
0.99639282
0.99657759
0.99674613
0.99690001
0.99704066
0.99716932
0.99728712
0.99739507
0.99749406
0.99758491
0.99766834
0.99774499
0.99781545
0.99788026
0.99793987
0.99799473
0.99804521
0.99809168
0.99813445
0.9981738
0.99821001
0.99824331
0.99827391
0.99830202
0.99832783
0.99835149
0.99837316
0.99839298
0.99841108
0.99842758
0.99844259
0.99845621
0.99846853
0.99847965
0.99848964
0.99849858
0.99850653
0.99851357
0.99851976
0.99852514
0.99852978
0.99853373
0.99853703
0.99853972
0.99854185
0.99854346
0.99854458
0.99854524
0.99854549
0.99854535
0.99854486
0.99854337
0.99854096
0.9985377
0.99853367
0.99852892
0.99852351
0.99851751
0.99851096
0.99850393
0.99849645
0.99848857
0.99848034
0.9984718
0.99846298
0.99845392
0.99844465
0.99843522
0.99842564
0.99841595
0.99840617
0.99839633
0.99838645
0.99837656
0.99836667
0.9983568
0.99834698
0.99833721
0.99832752
0.99831791
0.9983084
0.998299
0.99828973
0.99828058
0.99827158
0.99826272
0.99825401
0.99824546
0.99823707
0.99822884
0.99822079
0.99821291
0.9982052
0.99819766
0.99819029
0.9981831
0.99817608
0.99816923
0.99816255
0.99815603
0.99814968
0.99814348
0.99813744
0.99813155
0.9981258
0.99812019
0.99811472
0.99810938
0.99810417
0.99809907
0.99809409
0.99808921
0.99808443
0.99807975
0.99807515
0.99807062
0.99806614
1.9828821e-10
1.957784e-10
2.6203857e-10
2.1347243e-08
4.2611688e-08
6.6652812e-08
9.4805583e-08
1.2809852e-07
1.675182e-07
2.1450971e-07
9.9345018e-07
2.9588346e-06
6.4940176e-06
1.2010544e-05
2.0081932e-05
0.00045319159
0.0019823372
0.0050222096
0.0099022987
0.016953999
0.026468175
0.038682063
0.053767767
0.071823337
0.092867187
0.11683633
0.14358861
0.17290871
0.20451749
0.23808389
0.27323863
0.30958864
0.34673143
0.3842686
0.42181785
0.45902297
0.49556168
0.53115114
0.56555121
0.59856572
0.63004196
0.65986874
0.68797332
0.71431765
0.73889406
0.76172079
0.78283757
0.8023013
0.8201821
0.83655973
0.8515204
0.86515409
0.87755224
0.88880592
0.89900434
0.9082337
0.91657638
0.92411034
0.93090874
0.93703979
0.94256667
0.94754758
0.95203592
0.95608043
0.9597255
0.96301138
0.96597451
0.96864778
0.97106082
0.97324028
0.97521009
0.97699171
0.9786044
0.98006538
0.98139006
0.98259222
0.98368421
0.98467703
0.98558056
0.98640359
0.98715401
0.98783887
0.98846447
0.98903646
0.9895599
0.99003933
0.9904788
0.99088197
0.99125212
0.99159219
0.99190484
0.99219246
0.99245719
0.99270098
0.99292559
0.9931326
0.99332345
0.99349944
0.99366176
0.99381147
0.99394955
0.9940769
0.99419432
0.99430254
0.99440226
0.99449408
0.99457858
0.99465627
0.99472764
0.99479312
0.99485312
0.99490801
0.99495815
0.99500385
0.99504541
0.9950831
0.99511718
0.9951479
0.99517546
0.99520008
0.99522196
0.99524127
0.99525818
0.99527286
0.99528544
0.99529608
0.9953049
0.99531203
0.99531759
0.99532168
0.99532441
0.99532588
0.99532617
0.99532561
0.99532301
0.99531818
0.9953113
0.99530254
0.99529206
0.99528
0.9952665
0.99525171
0.99523573
0.9952187
0.99520073