/*--------------------------------*- C++ -*----------------------------------*\
| =========                 |                                                 |
| \\      /  F ield         | OpenFOAM: The Open Source CFD Toolbox           |
|  \\    /   O peration     | Version:  2406                                  |
|   \\  /    A nd           | Website:  www.openfoam.com                      |
|    \\/     M anipulation  |                                                 |
\*---------------------------------------------------------------------------*/
FoamFile
{
    version     2.0;
    format      ascii;
    arch        "LSB;label=32;scalar=64";
    class       volScalarField;
    location    "928";
    object      p;
}
// * * * * * * * * * * * * * * * * * * * * * * * * * * * * * * * * * * * * * //

dimensions      [0 2 -2 0 0 0 0];

internalField   nonuniform List<scalar> 
9000
(
-0.0043042421
-0.0043257813
-0.0043182358
-0.0042705228
-0.0041858831
-0.0040641441
-0.0039049261
-0.0037090856
-0.0034790058
-0.0032185973
-0.0029331183
-0.0026288423
-0.0023127234
-0.0019919913
-0.0016737007
-0.0013643647
-0.0010696682
-0.00079427242
-0.00054173343
-0.00031451522
-0.00011400559
5.9325879e-05
0.00020580606
0.00032640804
0.00042253389
0.00049595612
0.00054868158
0.00058282108
0.00060051094
0.00060384862
0.00059484439
0.00057538798
0.00054722734
0.00051195692
0.00047101337
0.00042567678
0.00037707589
0.000326196
0.0002738887
0.00022088248
0.00016779396
0.00011513889
6.3343118e-05
1.2752856e-05
-3.6355684e-05
-8.3767481e-05
-0.00012931979
-0.00017289449
-0.00021441187
-0.00025382491
-0.00029111399
-0.00032628212
-0.00035935087
-0.00039035672
-0.00041934801
-0.00044638225
-0.00047152388
-0.00049484231
-0.00051641036
-0.00053630286
-0.00055459561
-0.00057136443
-0.00058668443
-0.00060062943
-0.00061327149
-0.00062468057
-0.00063492428
-0.00064406764
-0.00065217302
-0.0006593
-0.00066550541
-0.00067084328
-0.00067536488
-0.0006791188
-0.00068215098
-0.00068450483
-0.0006862213
-0.00068733898
-0.00068789423
-0.00068792122
-0.00068745213
-0.00068651717
-0.00068514474
-0.00068336149
-0.00068119248
-0.0006786612
-0.00067578973
-0.00067259877
-0.00066910779
-0.00066533504
-0.00066129769
-0.00065701187
-0.00065249272
-0.0006477545
-0.00064281062
-0.00063767372
-0.0006323557
-0.00062686777
-0.00062122053
-0.00061542397
-0.00060948754
-0.0006034202
-0.00059723041
-0.00059092621
-0.00058451522
-0.00057800469
-0.0005714015
-0.00056471224
-0.00055794314
-0.0005511002
-0.00054418913
-0.00053721538
-0.00053018421
-0.00052310063
-0.00051596947
-0.00050879538
-0.0005015828
-0.00049433606
-0.00048705929
-0.0004797565
-0.00047243156
-0.00046508821
-0.00045773008
-0.00045036066
-0.00044298337
-0.00043560149
-0.00042821821
-0.00042083665
-0.00041345981
-0.00040609062
-0.00039873192
-0.00039138646
-0.00038405693
-0.00037674593
-0.00036945599
-0.00036218958
-0.00035494906
-0.00034773676
-0.00034055492
-0.00033340572
-0.00032629128
-0.00031921362
-0.00031217474
-0.00030517653
-0.00029822086
-0.00029130949
-0.00028444415
-0.00027762648
-0.00027085807
-0.00026414044
-0.00025747505
-0.00025086328
-0.00024430647
-0.00023780587
-0.00023136268
-0.00022497802
-0.00021865295
-0.00021238847
-0.00020618551
-0.00020004492
-0.0001939675
-0.00018795396
-0.00018200496
-0.00017612107
-0.00017030282
-0.00016455065
-0.00015886491
-0.00015324591
-0.00014769386
-0.00014220892
-0.00013679115
-0.00013144055
-0.00012615704
-0.00012094045
-0.00011579053
-0.00011070697
-0.00010568934
-0.00010073715
-9.5849814e-05
-9.1026642e-05
-8.6266859e-05
-8.1569581e-05
-7.6933822e-05
-7.2358475e-05
-6.7842313e-05
-6.3383973e-05
-5.898194e-05
-5.463453e-05
-5.0339866e-05
-4.6095839e-05
-4.1900058e-05
-3.7749759e-05
-3.364162e-05
-2.9571401e-05
-2.5533165e-05
-2.1515986e-05
-1.7492837e-05
-1.3432269e-05
-9.3817156e-06
-4.5946729e-06
-0.0042726947
-0.0042941338
-0.0042871676
-0.0042429205
-0.0041649186
-0.0040511001
-0.0038999464
-0.0037117569
-0.0034886217
-0.0032342716
-0.0029538199
-0.0026535127
-0.0023404045
-0.0020218384
-0.001704987
-0.0013964922
-0.0011021638
-0.00082676216
-0.0005739196
-0.00034619928
-0.00014499202
2.9233891e-05
0.00017668617
0.00029831201
0.00039556713
0.00047023047
0.00052428883
0.00055983617
0.0005789911
0.00058383268
0.0005763531
0.00055842496
0.00053178046
0.00049800005
0.0004585083
0.00041457512
0.00036732102
0.00031772488
0.00026663352
0.00021477227
0.00016275583
0.00011109932
6.0228866e-05
1.0491866e-05
-3.7833255e-05
-8.4529148e-05
-0.00012943086
-0.00017241699
-0.00021340428
-0.00025234222
-0.00028920767
-0.0003240001
-0.00035673754
-0.00038745306
-0.00041619165
-0.00044300764
-0.00046796242
-0.00049112253
-0.00051255809
-0.00053234142
-0.00055054598
-0.00056724539
-0.00058251279
-0.00059642013
-0.00060903781
-0.00062043424
-0.00063067563
-0.00063982574
-0.00064794577
-0.00065509428
-0.00066132715
-0.00066669758
-0.00067125608
-0.00067505057
-0.0006781264
-0.00068052644
-0.00068229117
-0.00068345876
-0.00068406519
-0.00068414434
-0.00068372807
-0.00068284636
-0.0006815274
-0.00067979765
-0.000677682
-0.00067520382
-0.00067238506
-0.00066924635
-0.00066580704
-0.00066208535
-0.00065809838
-0.00065386221
-0.00064939196
-0.00064470186
-0.00063980532
-0.00063471496
-0.00062944266
-0.00062399966
-0.00061839654
-0.00061264332
-0.00060674945
-0.0006007239
-0.00059457517
-0.00058831129
-0.00058193991
-0.0005754683
-0.00056890337
-0.00056225171
-0.00055551961
-0.00054871305
-0.00054183778
-0.00053489929
-0.00052790283
-0.00052085344
-0.00051375599
-0.00050661511
-0.00049943531
-0.0004922209
-0.00048497604
-0.00047770476
-0.00047041094
-0.00046309834
-0.0004557706
-0.00044843124
-0.00044108366
-0.00043373117
-0.00042637699
-0.00041902422
-0.00041167588
-0.0004043349
-0.00039700415
-0.00038968637
-0.00038238426
-0.00037510042
-0.00036783739
-0.00036059764
-0.00035338354
-0.00034619741
-0.00033904151
-0.00033191801
-0.00032482901
-0.00031777657
-0.00031076267
-0.0003037892
-0.00029685801
-0.00028997089
-0.00028312954
-0.00027633561
-0.00026959069
-0.00026289629
-0.00025625387
-0.0002496648
-0.00024313041
-0.00023665195
-0.00023023061
-0.00022386752
-0.00021756372
-0.0002113202
-0.00020513789
-0.00019901763
-0.00019296021
-0.00018696634
-0.00018103666
-0.00017517176
-0.00016937212
-0.00016363819
-0.00015797033
-0.00015236881
-0.00014683385
-0.00014136559
-0.00013596409
-0.00013062933
-0.00012536122
-0.00012015957
-0.00011502414
-0.00010995459
-0.00010495048
-0.0001000113
-9.5136442e-05
-9.0325208e-05
-8.5576792e-05
-8.0890286e-05
-7.6264668e-05
-7.1698794e-05
-6.7191383e-05
-6.2741009e-05
-5.8346069e-05
-5.4004763e-05
-4.9715048e-05
-4.5474582e-05
-4.1280628e-05
-3.7129921e-05
-3.3018421e-05
-2.8940958e-05
-2.4890614e-05
-2.0856469e-05
-1.6816614e-05
-1.276233e-05
-8.8029628e-06
-4.4681339e-06
-0.004294754
-0.0043129935
-0.0043059062
-0.0042643867
-0.0041914348
-0.0040827892
-0.0039360192
-0.0037511168
-0.0035300692
-0.0032765851
-0.0029959448
-0.002694694
-0.0023801516
-0.0020598614
-0.00174119
-0.0014309588
-0.0011351109
-0.00085842677
-0.00060447314
-0.0003757952
-0.00017380464
1.0821853e-06
0.00014919299
0.00027151439
0.00036951368
0.00044498215
0.00049991572
0.00053641216
0.0005565879
0.00056251515
0.00055617616
0.0005394318
0.00051400176
0.00048145392
0.00044320078
0.00040050108
0.00035446519
0.00030606307
0.00025613386
0.00020539639
0.00015446007
0.00010383579
5.3946512e-05
5.1373269e-06
-4.2314993e-05
-8.8192829e-05
-0.00013233094
-0.00017460766
-0.00021493881
-0.00025327253
-0.00028958393
-0.00032387041
-0.00035614776
-0.00038644662
-0.00041480953
-0.00044128824
-0.00046594163
-0.00048883371
-0.00051003214
-0.00052960689
-0.0005476291
-0.00056417024
-0.00057930136
-0.00059309248
-0.00060561215
-0.00061692708
-0.00062710188
-0.00063619882
-0.00064427776
-0.000651396
-0.00065760825
-0.00066296665
-0.00066752076
-0.0006713176
-0.00067440174
-0.0006768153
-0.00067859812
-0.00067978778
-0.00068041971
-0.00068052731
-0.00068014202
-0.00067929343
-0.00067800938
-0.00067631603
-0.00067423799
-0.0006717984
-0.00066901899
-0.00066592019
-0.00066252121
-0.00065884011
-0.00065489386
-0.00065069844
-0.00064626887
-0.00064161932
-0.00063676311
-0.0006317128
-0.00062648023
-0.00062107661
-0.00061551247
-0.00060979782
-0.00060394209
-0.00059795423
-0.00059184271
-0.00058561559
-0.00057928051
-0.00057284473
-0.00056631517
-0.00055969843
-0.00055300078
-0.00054622824
-0.00053938655
-0.00053248122
-0.00052551751
-0.00051850048
-0.00051143499
-0.00050432571
-0.00049717714
-0.00048999361
-0.0004827793
-0.00047553824
-0.00046827434
-0.00046099135
-0.00045369293
-0.00044638261
-0.00043906381
-0.00043173984
-0.00042441392
-0.00041708917
-0.00040976862
-0.00040245522
-0.0003951518
-0.00038786115
-0.00038058595
-0.00037332883
-0.00036609231
-0.00035887887
-0.00035169089
-0.00034453068
-0.00033740051
-0.00033030255
-0.0003232389
-0.00031621162
-0.00030922267
-0.00030227397
-0.00029536735
-0.0002885046
-0.00028168742
-0.00027491746
-0.00026819629
-0.00026152544
-0.00025490633
-0.00024834037
-0.00024182885
-0.00023537303
-0.00022897409
-0.00022263315
-0.00021635124
-0.00021012937
-0.00020396842
-0.00019786926
-0.00019183265
-0.0001858593
-0.00017994985
-0.00017410486
-0.00016832483
-0.00016261018
-0.00015696125
-0.00015137834
-0.00014586163
-0.00014041125
-0.00013502726
-0.00012970963
-0.00012445825
-0.00011927293
-0.00011415341
-0.00010909934
-0.00010411028
-9.9185684e-05
-9.4324946e-05
-8.9527343e-05
-8.4792054e-05
-8.0118151e-05
-7.5504588e-05
-7.0950195e-05
-6.645366e-05
-6.2013515e-05
-5.7628112e-05
-5.3295587e-05
-4.9013821e-05
-4.4780372e-05
-4.0592384e-05
-3.6446469e-05
-3.2338527e-05
-2.8263575e-05
-2.4215667e-05
-2.0187481e-05
-1.6165597e-05
-1.2158104e-05
-8.3214458e-06
-4.6309594e-06
-0.0044196944
-0.0044193627
-0.0044015263
-0.0043539192
-0.0042766491
-0.0041635376
-0.0040118324
-0.0038215627
-0.0035948288
-0.0033355156
-0.003049151
-0.0027425205
-0.0024231441
-0.0020987894
-0.0017768457
-0.0014640954
-0.0011664108
-0.00088849973
-0.00063387536
-0.00040491637
-0.00020289618
-2.8134803e-05
0.00011981258
0.00024201078
0.000339981
0.00041555315
0.00047074482
0.0005076611
0.0005284151
0.00053506833
0.00052958757
0.00051381564
0.00048945308
0.0004580487
0.00042099668
0.00037953872
0.00033476959
0.00028764525
0.00023899243
0.00018951912
0.00013982533
9.0413971e-05
4.1701264e-05
-5.973249e-06
-5.2337393e-05
-9.7177443e-05
-0.00014032913
-0.00018167054
-0.00022111919
-0.00025862441
-0.00029416116
-0.00032772598
-0.00035933342
-0.00038901253
-0.00041680396
-0.00044275739
-0.00046692944
-0.00048938184
-0.00051017985
-0.00052939105
-0.00054708422
-0.00056332849
-0.00057819263
-0.00059174446
-0.00060405045
-0.00061517527
-0.00062518163
-0.00063413002
-0.00064207856
-0.00064908299
-0.00065519653
-0.00066046995
-0.00066495152
-0.00066868709
-0.00067172012
-0.00067409175
-0.00067584087
-0.00067700423
-0.00067761648
-0.00067771033
-0.00067731656
-0.00067646419
-0.00067518051
-0.00067349122
-0.00067142049
-0.00066899105
-0.00066622428
-0.00066314031
-0.00065975805
-0.00065609529
-0.00065216879
-0.00064799432
-0.00064358672
-0.00063895998
-0.00063412729
-0.00062910107
-0.00062389307
-0.00061851437
-0.00061297545
-0.0006072862
-0.00060145601
-0.00059549378
-0.00058940792
-0.00058320644
-0.00057689696
-0.0005704867
-0.00056398255
-0.0005573911
-0.00055071861
-0.00054397108
-0.00053715425
-0.00053027359
-0.0005233344
-0.00051634171
-0.00050930038
-0.00050221509
-0.00049509034
-0.00048793046
-0.00048073964
-0.00047352191
-0.00046628118
-0.00045902122
-0.00045174568
-0.0004444581
-0.00043716191
-0.00042986043
-0.00042255688
-0.00041525438
-0.00040795598
-0.00040066461
-0.00039338313
-0.00038611433
-0.00037886089
-0.00037162543
-0.0003644105
-0.00035721855
-0.00035005199
-0.00034291314
-0.00033580423
-0.00032872746
-0.00032168493
-0.00031467869
-0.00030771071
-0.0003007829
-0.00029389709
-0.00028705507
-0.00028025854
-0.00027350914
-0.00026680844
-0.00026015796
-0.00025355914
-0.00024701335
-0.0002405219
-0.00023408604
-0.00022770694
-0.00022138572
-0.00021512341
-0.00020892098
-0.00020277935
-0.00019669935
-0.00019068175
-0.00018472725
-0.00017883647
-0.00017300998
-0.00016724826
-0.00016155172
-0.00015592071
-0.0001503555
-0.00014485628
-0.00013942316
-0.0001340562
-0.00012875535
-0.0001235205
-0.00011835146
-0.00011324795
-0.00010820961
-0.000103236
-9.8326567e-05
-9.3480695e-05
-8.8697656e-05
-8.3976627e-05
-7.9316676e-05
-7.4716758e-05
-7.0175708e-05
-6.5692224e-05
-6.1264859e-05
-5.6891999e-05
-5.2571841e-05
-4.8302366e-05
-4.4081302e-05
-3.9906098e-05
-3.5773902e-05
-3.1681595e-05
-2.7626003e-05
-2.3604488e-05
-1.9616342e-05
-1.5659403e-05
-1.1761744e-05
-8.0711881e-06
-4.9951668e-06
-0.0046751213
-0.0046147156
-0.0045541654
-0.0044783861
-0.0043803492
-0.0042504529
-0.0040848138
-0.0038834402
-0.0036479674
-0.003381527
-0.0030892739
-0.0027780382
-0.0024553297
-0.0021288165
-0.0018058696
-0.0014931866
-0.0011964358
-0.00092010204
-0.00066747005
-0.00044067681
-0.00024079928
-6.8007539e-05
7.8260194e-05
0.00019914079
0.00029619221
0.00037125387
0.00042633105
0.00046350133
0.00048484115
0.00049237051
0.00048801322
0.0004735699
0.0004507013
0.00042091966
0.00038558624
0.00034591356
0.00030297084
0.00025769193
0.00021088453
0.00016324042
0.00011534597
6.7692646e-05
2.0687256e-05
-2.5338344e-05
-7.0118067e-05
-0.00011344364
-0.00015515306
-0.00019512351
-0.00023327421
-0.00026955609
-0.00030394399
-0.00033643343
-0.00036703734
-0.00039578274
-0.00042270783
-0.00044785958
-0.00047129169
-0.00049306281
-0.00051323508
-0.0005318729
-0.00054904189
-0.00056480804
-0.00057923706
-0.00059239382
-0.00060434189
-0.00061514322
-0.00062485787
-0.00063354386
-0.00064125696
-0.00064805069
-0.00065397621
-0.00065908233
-0.00066341553
-0.00066701996
-0.00066993754
-0.00067220796
-0.00067386878
-0.00067495553
-0.00067550175
-0.00067553908
-0.00067509738
-0.0006742048
-0.00067288784
-0.00067117148
-0.00066907923
-0.00066663324
-0.00066385434
-0.00066076216
-0.00065737518
-0.00065371079
-0.00064978539
-0.00064561441
-0.00064121241
-0.00063659311
-0.00063176947
-0.00062675371
-0.00062155737
-0.00061619137
-0.00061066604
-0.00060499115
-0.00059917597
-0.00059322928
-0.00058715941
-0.0005809743
-0.00057468148
-0.00056828813
-0.00056180109
-0.00055522689
-0.00054857175
-0.00054184165
-0.0005350423
-0.00052817916
-0.00052125748
-0.00051428231
-0.00050725849
-0.00050019068
-0.00049308338
-0.00048594092
-0.00047876748
-0.00047156711
-0.0004643437
-0.00045710102
-0.00044984275
-0.00044257241
-0.00043529344
-0.00042800917
-0.00042072281
-0.00041343751
-0.00040615631
-0.00039888214
-0.00039161789
-0.00038436632
-0.00037713014
-0.00036991197
-0.00036271436
-0.00035553977
-0.0003483906
-0.00034126918
-0.00033417776
-0.00032711852
-0.00032009357
-0.00031310495
-0.00030615465
-0.00029924456
-0.00029237653
-0.00028555234
-0.00027877368
-0.0002720422
-0.00026535947
-0.00025872699
-0.00025214621
-0.00024561849
-0.00023914515
-0.00023272742
-0.00022636648
-0.00022006342
-0.00021381928
-0.00020763504
-0.00020151159
-0.00019544976
-0.00018945031
-0.00018351394
-0.00017764127
-0.00017183285
-0.00016608915
-0.00016041059
-0.0001547975
-0.00014925014
-0.0001437687
-0.00013835329
-0.00013300394
-0.00012772061
-0.00012250319
-0.00011735148
-0.00011226518
-0.00010724395
-0.00010228732
-9.7394773e-05
-9.2565672e-05
-8.7799304e-05
-8.3094857e-05
-7.8451417e-05
-7.3867972e-05
-6.9343395e-05
-6.487645e-05
-6.0465778e-05
-5.6109899e-05
-5.1807203e-05
-4.7555964e-05
-4.3354353e-05
-3.9200503e-05
-3.5092631e-05
-3.1029311e-05
-2.7010059e-05
-2.3036363e-05
-1.9114387e-05
-1.5250732e-05
-1.1492975e-05
-7.9305813e-06
-5.4786972e-06
-0.0051110037
-0.0048759545
-0.0047036799
-0.0045723085
-0.0044426108
-0.0042926442
-0.004114975
-0.0039053689
-0.0036629899
-0.0033912871
-0.0030959862
-0.0027838464
-0.0024622291
-0.0021385982
-0.0018200132
-0.0015127537
-0.001222064
-0.00095203859
-0.0007056152
-0.00048464174
-0.00028998408
-0.00012167324
2.0931623e-05
0.00013899112
0.00023404423
0.00030788189
0.00036244153
0.00039972218
0.0004217177
0.00043036633
0.0004275141
0.00041488981
0.00039408932
0.00036656717
0.00033363407
0.00029645862
0.00025607227
0.00021337659
0.00016915194
0.00012406712
7.8689311e-05
3.3494175e-05
-1.112438e-05
-5.4844806e-05
-9.7409108e-05
-0.00013861511
-0.00017830352
-0.00021635331
-0.0002526861
-0.00028725311
-0.00032002814
-0.00035100496
-0.0003801942
-0.00040762001
-0.00043331722
-0.00045732913
-0.00047970552
-0.00050050094
-0.00051977336
-0.00053758293
-0.00055399107
-0.0005690596
-0.00058285018
-0.00059542368
-0.00060683987
-0.00061715702
-0.00062643169
-0.00063471854
-0.00064207019
-0.00064853718
-0.00065416786
-0.00065900841
-0.00066310286
-0.00066649306
-0.0006692188
-0.00067131779
-0.00067282578
-0.00067377658
-0.00067420219
-0.00067413281
-0.00067359699
-0.00067262165
-0.00067123219
-0.00066945259
-0.00066730542
-0.00066481198
-0.00066199235
-0.00065886545
-0.00065544912
-0.00065176018
-0.00064781449
-0.00064362704
-0.00063921194
-0.00063458254
-0.00062975143
-0.00062473054
-0.00061953112
-0.00061416385
-0.00060863882
-0.00060296562
-0.00059715332
-0.00059121056
-0.00058514552
-0.00057896603
-0.00057267949
-0.000566293
-0.00055981331
-0.00055324688
-0.00054659989
-0.00053987823
-0.00053308758
-0.00052623336
-0.0005193208
-0.0005123549
-0.0005053405
-0.00049828224
-0.0004911846
-0.0004840519
-0.00047688833
-0.00046969791
-0.00046248454
-0.00045525201
-0.00044800397
-0.00044074396
-0.00043347542
-0.00042620169
-0.000418926
-0.00041165147
-0.00040438117
-0.00039711805
-0.00038986498
-0.00038262475
-0.00037540007
-0.00036819356
-0.00036100779
-0.00035384521
-0.00034670825
-0.00033959922
-0.00033252039
-0.00032547394
-0.00031846198
-0.00031148658
-0.00030454969
-0.00029765324
-0.00029079907
-0.00028398894
-0.00027722458
-0.00027050761
-0.0002638396
-0.00025722207
-0.00025065645
-0.00024414411
-0.00023768636
-0.00023128442
-0.00022493947
-0.00021865261
-0.00021242486
-0.0002062572
-0.00020015051
-0.00019410563
-0.0001881233
-0.00018220421
-0.00017634898
-0.00017055815
-0.00016483219
-0.00015917151
-0.00015357643
-0.00014804721
-0.00014258402
-0.00013718698
-0.00013185611
-0.00012659137
-0.00012139263
-0.0001162597
-0.00011119228
-0.00010619003
-0.00010125249
-9.6379137e-05
-9.1569367e-05
-8.6822481e-05
-8.2137698e-05
-7.7514151e-05
-7.2950886e-05
-6.8446864e-05
-6.4000966e-05
-5.9611998e-05
-5.527871e-05
-5.099982e-05
-4.6774065e-05
-4.2600284e-05
-3.8477576e-05
-3.4405562e-05
-3.0384843e-05
-2.6417858e-05
-2.2510014e-05
-1.8673366e-05
-1.491885e-05
-1.1313985e-05
-7.8470693e-06
-6.0574753e-06
-0.0060875567
-0.0052051844
-0.004755884
-0.0045781698
-0.0044294931
-0.0042620244
-0.004075692
-0.0038618954
-0.0036173474
-0.0033461084
-0.0030542789
-0.0027483252
-0.0024351722
-0.0021218093
-0.0018147303
-0.0015196035
-0.0012411046
-0.00098284186
-0.00074736384
-0.00053623249
-0.00035013312
-0.00018900897
-5.2205122e-05
6.1394921e-05
0.00015324456
0.00022502355
0.00027854482
0.00031567867
0.00033829267
0.00034820553
0.00034715307
0.0003367644
0.0003185465
0.00029387562
0.00026399401
0.00023001092
0.00019290669
0.00015353911
0.00011265135
7.0880817e-05
2.8768491e-05
-1.3231642e-05
-5.4743363e-05
-9.5459271e-05
-0.00013513272
-0.00017356812
-0.00021060923
-0.00024614254
-0.00028009299
-0.00031241096
-0.00034306851
-0.00037205713
-0.00039938434
-0.00042507045
-0.00044914597
-0.00047164946
-0.00049262568
-0.00051212398
-0.00053019699
-0.00054689952
-0.00056228762
-0.00057641786
-0.00058934674
-0.00060113011
-0.00061182291
-0.00062147873
-0.00063014971
-0.00063788625
-0.00064473697
-0.00065074859
-0.00065596589
-0.00066043169
-0.00066418686
-0.00066727032
-0.0006697191
-0.00067156838
-0.00067285152
-0.00067360015
-0.00067384422
-0.00067361208
-0.00067293054
-0.00067182493
-0.00067031921
-0.00066843599
-0.00066619663
-0.0006636213
-0.00066072907
-0.0006575379
-0.00065406479
-0.00065032579
-0.00064633606
-0.00064210993
-0.00063766095
-0.00063300192
-0.00062814499
-0.00062310163
-0.00061788273
-0.00061249861
-0.00060695906
-0.00060127337
-0.0005954504
-0.00058949853
-0.00058342577
-0.00057723976
-0.00057094776
-0.00056455673
-0.00055807329
-0.00055150381
-0.00054485437
-0.0005381308
-0.00053133869
-0.00052448343
-0.00051757018
-0.00051060391
-0.00050358943
-0.00049653135
-0.00048943413
-0.00048230208
-0.00047513937
-0.00046795003
-0.00046073795
-0.00045350691
-0.00044626058
-0.00043900249
-0.0004317361
-0.00042446474
-0.00041719165
-0.00040991999
-0.00040265281
-0.00039539308
-0.00038814369
-0.00038090744
-0.00037368704
-0.00036648514
-0.00035930429
-0.000352147
-0.00034501567
-0.00033791265
-0.00033084019
-0.0003238005
-0.00031679571
-0.00030982786
-0.00030289895
-0.00029601088
-0.00028916551
-0.00028236462
-0.00027560992
-0.00026890304
-0.00026224558
-0.00025563902
-0.00024908481
-0.00024258432
-0.00023613885
-0.00022974964
-0.00022341786
-0.00021714459
-0.00021093087
-0.00020477766
-0.00019868584
-0.00019265624
-0.00018668961
-0.00018078663
-0.00017494791
-0.00016917398
-0.00016346531
-0.0001578223
-0.00015224527
-0.00014673447
-0.00014129006
-0.00013591217
-0.0001306008
-0.00012535592
-0.00012017739
-0.00011506502
-0.00011001853
-0.00010503757
-0.0001001217
-9.5270421e-05
-9.0483145e-05
-8.5759216e-05
-8.1097903e-05
-7.6498408e-05
-7.1959872e-05
-6.7481381e-05
-6.3061988e-05
-5.870073e-05
-5.4396674e-05
-5.0148967e-05
-4.5956934e-05
-4.1820225e-05
-3.7739046e-05
-3.3714529e-05
-2.9749301e-05
-2.5848477e-05
-2.2020581e-05
-1.8282208e-05
-1.4644047e-05
-1.1196386e-05
-7.7884116e-06
-6.7077067e-06
-0.0081304634
-0.0056661287
-0.0047560259
-0.004560614
-0.0043771432
-0.0041684392
-0.0039658325
-0.0037498105
-0.0035078951
-0.003243267
-0.0029621448
-0.0026702172
-0.0023734639
-0.0020780358
-0.0017896255
-0.0015131455
-0.0012526234
-0.0010111598
-0.00079093663
-0.00059328112
-0.00041876195
-0.00026730333
-0.00013830488
-3.0757265e-05
5.6651537e-05
0.00012544149
0.00017725922
0.00021381057
0.00023680607
0.00024791814
0.0002487488
0.00024080634
0.00022548972
0.00020407933
0.00017773294
0.00014748575
0.00011425355
7.8838262e-05
4.193505e-05
4.1404044e-06
-3.4039206e-05
-7.2178551e-05
-0.00010992511
-0.00014699073
-0.00018314598
-0.00021820331
-0.00025201379
-0.00028447332
-0.0003155078
-0.00034506708
-0.00037312261
-0.00039966397
-0.00042469541
-0.00044823298
-0.00047030225
-0.00049093629
-0.00051017397
-0.00052805851
-0.00054463622
-0.00055995554
-0.0005740662
-0.00058701848
-0.00059886273
-0.00060964884
-0.00061942593
-0.00062824208
-0.00063614407
-0.00064317724
-0.00064938539
-0.00065481066
-0.00065949354
-0.00066347279
-0.00066678547
-0.00066946695
-0.00067155093
-0.00067306948
-0.00067405306
-0.00067453065
-0.00067452969
-0.00067407623
-0.00067319496
-0.00067190925
-0.00067024124
-0.00066821189
-0.00066584102
-0.00066314741
-0.00066014883
-0.00065686207
-0.00065330307
-0.00064948688
-0.00064542777
-0.00064113926
-0.00063663416
-0.00063192462
-0.00062702215
-0.00062193769
-0.00061668163
-0.00061126384
-0.00060569371
-0.00059998017
-0.00059413175
-0.00058815655
-0.00058206233
-0.00057585648
-0.00056954608
-0.00056313788
-0.00055663839
-0.0005500538
-0.00054339008
-0.00053665297
-0.00052984797
-0.00052298038
-0.00051605531
-0.00050907768
-0.00050205225
-0.00049498359
-0.00048787615
-0.00048073422
-0.00047356194
-0.00046636334
-0.00045914231
-0.00045190263
-0.00044464796
-0.00043738187
-0.0004301078
-0.0004228291
-0.00041554905
-0.00040827079
-0.0004009974
-0.00039373188
-0.00038647712
-0.00037923594
-0.00037201109
-0.00036480522
-0.00035762091
-0.00035046068
-0.00034332695
-0.00033622209
-0.00032914837
-0.00032210802
-0.00031510316
-0.00030813587
-0.00030120816
-0.00029432194
-0.00028747908
-0.00028068137
-0.00027393053
-0.00026722821
-0.00026057598
-0.00025397537
-0.00024742782
-0.00024093469
-0.00023449731
-0.00022811689
-0.00022179462
-0.00021553158
-0.00020932881
-0.00020318726
-0.00019710782
-0.0001910913
-0.00018513846
-0.00017924997
-0.00017342644
-0.00016766839
-0.00016197629
-0.00015635054
-0.00015079143
-0.00014529923
-0.0001398741
-0.00013451614
-0.00012922538
-0.00012400176
-0.00011884516
-0.0001137554
-0.00010873219
-0.00010377519
-9.8884004e-05
-9.4058142e-05
-8.929706e-05
-8.4600152e-05
-7.9966756e-05
-7.5396166e-05
-7.0887643e-05
-6.6440434e-05
-6.2053805e-05
-5.7727074e-05
-5.3459678e-05
-4.9251255e-05
-4.5101779e-05
-4.1011749e-05
-3.6982479e-05
-3.3016523e-05
-2.911826e-05
-2.5294949e-05
-2.1557159e-05
-1.7924698e-05
-1.4404012e-05
-1.1112164e-05
-7.7321516e-06
-7.3847284e-06
-0.0043163434
-0.0039092249
-0.0039253577
-0.0040436688
-0.0040049695
-0.0038751485
-0.0037167737
-0.0035300543
-0.0033121023
-0.0030703152
-0.0028127976
-0.0025456965
-0.0022746855
-0.0020053331
-0.0017426804
-0.0014910091
-0.0012538063
-0.00103376
-0.00083277512
-0.00065202605
-0.00049203648
-0.00035277198
-0.00023373706
-0.0001340704
-5.2634191e-05
1.1904883e-05
6.1004475e-05
9.6186008e-05
0.00011898453
0.00013090843
0.00013340833
0.00012785407
0.00011551894
9.7569966e-05
7.5063269e-05
4.8943435e-05
2.0046064e-05
-1.0897373e-05
-4.3253083e-05
-7.6477478e-05
-0.00011010918
-0.00014376086
-0.00017711114
-0.00020989664
-0.00024190358
-0.00027295878
-0.00030293844
-0.00033175084
-0.00035932243
-0.00038560223
-0.00041056071
-0.00043418517
-0.00045647616
-0.000477445
-0.00049711173
-0.00051550323
-0.00053265168
-0.00054859328
-0.00056336715
-0.00057701441
-0.00058957749
-0.00060109945
-0.00061162354
-0.00062119275
-0.00062984955
-0.00063763554
-0.00064459137
-0.00065075648
-0.00065616908
-0.00066086602
-0.00066488276
-0.00066825336
-0.00067101043
-0.00067318517
-0.00067480738
-0.00067590549
-0.00067650656
-0.00067663639
-0.0006763195
-0.00067557921
-0.00067443764
-0.00067291586
-0.00067103381
-0.00066881046
-0.0006662638
-0.00066341091
-0.00066026798
-0.00065685039
-0.00065317275
-0.00064924891
-0.00064509205
-0.00064071467
-0.00063612867
-0.00063134537
-0.00062637551
-0.00062122935
-0.00061591665
-0.00061044672
-0.00060482844
-0.00059907028
-0.00059318035
-0.00058716639
-0.00058103582
-0.00057479574
-0.00056845297
-0.00056201403
-0.0005554852
-0.00054887253
-0.00054218182
-0.00053541866
-0.00052858844
-0.00052169637
-0.00051474747
-0.0005077466
-0.00050069844
-0.00049360754
-0.00048647831
-0.000479315
-0.00047212174
-0.00046490256
-0.00045766134
-0.00045040185
-0.00044312779
-0.0004358427
-0.00042855007
-0.00042125326
-0.00041395554
-0.00040666012
-0.00039937009
-0.00039208846
-0.00038481817
-0.00037756206
-0.0003703229
-0.00036310338
-0.00035590611
-0.00034873363
-0.00034158841
-0.00033447282
-0.00032738917
-0.00032033971
-0.00031332661
-0.00030635195
-0.00029941776
-0.00029252598
-0.00028567851
-0.00027887714
-0.00027212361
-0.0002654196
-0.00025876669
-0.00025216641
-0.00024562022
-0.0002391295
-0.00023269557
-0.00022631966
-0.00022000296
-0.00021374656
-0.00020755149
-0.00020141872
-0.00019534913
-0.00018934354
-0.0001834027
-0.00017752727
-0.00017171787
-0.00016597503
-0.00016029919
-0.00015469075
-0.00014915003
-0.00014367725
-0.0001382726
-0.00013293617
-0.00012766798
-0.00012246798
-0.00011733606
-0.00011227203
-0.00010727563
-0.00010234654
-9.7484378e-05
-9.2688695e-05
-8.7958994e-05
-8.3294734e-05
-7.8695338e-05
-7.4160208e-05
-6.9688751e-05
-6.5280403e-05
-6.093467e-05
-5.6651186e-05
-5.2429789e-05
-4.8270635e-05
-4.4174353e-05
-4.0142266e-05
-3.6176699e-05
-3.228142e-05
-2.846218e-05
-2.4727743e-05
-2.1089662e-05
-1.7569839e-05
-1.4167397e-05
-1.1029765e-05
-7.6647702e-06
-8.0364116e-06
-0.0039813601
-0.0041151482
-0.0040788149
-0.0039610064
-0.0038145529
-0.0036528142
-0.0034799672
-0.0032916815
-0.0030852885
-0.002863461
-0.0026306758
-0.0023912787
-0.0021496418
-0.0019101731
-0.0016769685
-0.0014535754
-0.0012429199
-0.0010472871
-0.00086832342
-0.0007070695
-0.00056401676
-0.0004391773
-0.00033215957
-0.00024224535
-0.00016846431
-0.00010966357
-6.4570451e-05
-3.184722e-05
-1.0137408e-05
1.8964323e-06
5.543139e-06
2.0209346e-06
-7.537802e-06
-2.2095921e-05
-4.0716016e-05
-6.2561031e-05
-8.6891861e-05
-0.00011306277
-0.0001405153
-0.00016877131
-0.00019742559
-0.00022613841
-0.00025462822
-0.00028266509
-0.00031006071
-0.00033666822
-0.00036237848
-0.00038710419
-0.00041077874
-0.00043335662
-0.0004548103
-0.00047512632
-0.00049430254
-0.00051234607
-0.00052927154
-0.00054509953
-0.00055985526
-0.00057356748
-0.00058626757
-0.00059798878
-0.00060876558
-0.00061863318
-0.00062762705
-0.00063578261
-0.00064313497
-0.00064971865
-0.00065556746
-0.00066071435
-0.00066519132
-0.00066902933
-0.00067225826
-0.00067490689
-0.00067700287
-0.00067857275
-0.00067964194
-0.00068023478
-0.0006803745
-0.00068008331
-0.00067938241
-0.00067829201
-0.00067683137
-0.00067501885
-0.00067287195
-0.00067040733
-0.00066764086
-0.00066458764
-0.00066126209
-0.00065767792
-0.00065384819
-0.00064978537
-0.00064550134
-0.00064100742
-0.00063631443
-0.00063143269
-0.00062637206
-0.00062114198
-0.00061575145
-0.00061020912
-0.00060452325
-0.00059870175
-0.00059275224
-0.00058668202
-0.00058049809
-0.00057420721
-0.00056781586
-0.00056133029
-0.00055475653
-0.0005481004
-0.00054136752
-0.0005345633
-0.000527693
-0.0005207617
-0.00051377432
-0.00050673563
-0.00049965025
-0.00049252266
-0.00048535724
-0.00047815821
-0.00047092969
-0.00046367567
-0.00045640005
-0.00044910662
-0.00044179906
-0.00043448095
-0.00042715579
-0.00041982698
-0.00041249783
-0.00040517156
-0.00039785131
-0.00039054013
-0.000383241
-0.0003759568
-0.00036869035
-0.00036144438
-0.00035422154
-0.00034702441
-0.0003398555
-0.00033271724
-0.00032561198
-0.00031854199
-0.00031150949
-0.00030451659
-0.00029756537
-0.00029065781
-0.00028379581
-0.00027698122
-0.00027021581
-0.00026350126
-0.0002568392
-0.00025023117
-0.00024367866
-0.00023718306
-0.00023074571
-0.00022436787
-0.00021805072
-0.00021179537
-0.00020560287
-0.00019947418
-0.0001934102
-0.00018741176
-0.00018147959
-0.00017561439
-0.00016981674
-0.0001640872
-0.0001584262
-0.00015283414
-0.00014731133
-0.000141858
-0.00013647434
-0.00013116044
-0.00012591632
-0.00012074193
-0.00011563718
-0.00011060188
-0.00010563579
-0.00010073862