/*--------------------------------*- C++ -*----------------------------------*\
| =========                 |                                                 |
| \\      /  F ield         | OpenFOAM: The Open Source CFD Toolbox           |
|  \\    /   O peration     | Version:  2406                                  |
|   \\  /    A nd           | Website:  www.openfoam.com                      |
|    \\/     M anipulation  |                                                 |
\*---------------------------------------------------------------------------*/
FoamFile
{
    version     2.0;
    format      ascii;
    arch        "LSB;label=32;scalar=64";
    class       surfaceScalarField;
    location    "928";
    object      phi;
}
// * * * * * * * * * * * * * * * * * * * * * * * * * * * * * * * * * * * * * //

dimensions      [0 3 -1 0 0 0 0];

oriented        oriented;

internalField   nonuniform List<scalar> 
17755
(
-3.2512759e-13
3.2512759e-13
-1.0488629e-12
7.237353e-13
-1.8968963e-12
8.4803347e-13
-2.7231118e-12
8.2621542e-13
-3.4771202e-12
7.5400841e-13
-4.1369851e-12
6.5986493e-13
-4.6884455e-12
5.5146037e-13
-5.1200148e-12
4.3156935e-13
-5.4227812e-12
3.027664e-13
-5.5913086e-12
1.685274e-13
-5.6245099e-12
3.320123e-14
-5.5258788e-12
-9.8631011e-14
-5.3035774e-12
-2.2230149e-13
-4.9697011e-12
-3.3387622e-13
-4.539231e-12
-4.3047019e-13
-4.0290196e-12
-5.1021133e-13
-3.4567476e-12
-5.7227204e-13
-2.8399074e-12
-6.1684024e-13
-2.1950438e-12
-6.4486351e-13
-1.5374066e-12
-6.5763721e-13
-8.8026278e-13
-6.5714386e-13
-2.3472719e-13
-6.4553559e-13
3.8986892e-13
-6.245961e-13
9.8621045e-13
-5.9634153e-13
1.5489209e-12
-5.6271047e-13
2.0742875e-12
-5.2536657e-13
2.5600097e-12
-4.8572225e-13
3.0049716e-12
-4.4496186e-13
3.4090249e-12
-4.0405328e-13
3.7727876e-12
-3.6376275e-13
4.0974659e-12
-3.2467829e-13
4.3847007e-12
-2.8723483e-13
4.6364395e-12
-2.5173875e-13
4.8548301e-12
-2.1839064e-13
5.0421358e-12
-1.8730569e-13
5.2006673e-12
-1.585315e-13
5.3327304e-12
-1.3206309e-13
5.4405859e-12
-1.0785552e-13
5.5264202e-12
-8.5834244e-14
5.5923236e-12
-6.5903456e-14
5.6402765e-12
-4.7952872e-14
5.6721396e-12
-3.1863052e-14
5.6896492e-12
-1.750959e-14
5.6944156e-12
-4.7664214e-15
5.6879252e-12
6.4903404e-15
5.6715415e-12
1.6383738e-14
5.6465094e-12
2.5032126e-14
5.613963e-12
3.2546422e-14
5.5749316e-12
3.9031338e-14
5.5303454e-12
4.4586194e-14
5.481041e-12
4.930439e-14
5.4277682e-12
5.3272788e-14
5.3711966e-12
5.6571633e-14
5.3119219e-12
5.9274686e-14
5.2504725e-12
6.1449398e-14
5.1873153e-12
6.3157194e-14
5.1228615e-12
6.44538e-14
5.0574719e-12
6.538961e-14
4.9914619e-12
6.6010055e-14
4.9251059e-12
6.6355975e-14
4.8586419e-12
6.646398e-14
4.7922751e-12
6.63668e-14
4.7261815e-12
6.6093624e-14
4.6605111e-12
6.567041e-14
4.5953909e-12
6.5120192e-14
4.5309275e-12
6.4463346e-14
4.4672097e-12
6.371786e-14
4.4043101e-12
6.2899564e-14
4.3422878e-12
6.2022354e-14
4.2811894e-12
6.1098391e-14
4.2210511e-12
6.0138281e-14
4.1618998e-12
5.9151252e-14
4.1037546e-12
5.8145292e-14
4.0466273e-12
5.7127296e-14
3.9905241e-12
5.6103186e-14
3.9354461e-12
5.507802e-14
3.88139e-12
5.4056097e-14
3.8283489e-12
5.3041041e-14
3.776313e-12
5.2035886e-14
3.7252699e-12
5.1043147e-14
3.675205e-12
5.006488e-14
3.6261023e-12
4.9102747e-14
3.5779442e-12
4.8158058e-14
3.5307124e-12
4.7231824e-14
3.4843876e-12
4.6324791e-14
3.4389501e-12
4.5437478e-14
3.3943799e-12
4.4570209e-14
3.3506568e-12
4.3723141e-14
3.3077605e-12
4.2896287e-14
3.2656709e-12
4.2089539e-14
3.2243683e-12
4.1302686e-14
3.1838328e-12
4.0535434e-14
3.1440454e-12
3.9787416e-14
3.1049872e-12
3.9058209e-14
3.0666399e-12
3.8347342e-14
3.0289856e-12
3.7654308e-14
2.992007e-12
3.697857e-14
2.9556874e-12
3.6319575e-14
2.9200107e-12
3.5676752e-14
2.8849611e-12
3.5049525e-14
2.8505238e-12
3.4437311e-14
2.8166843e-12
3.3839531e-14
2.7834287e-12
3.3255607e-14
2.7507437e-12
3.2684971e-14
2.7186166e-12
3.2127063e-14
2.6870353e-12
3.1581338e-14
2.655988e-12
3.104726e-14
2.6254637e-12
3.0524312e-14
2.5954517e-12
3.001199e-14
2.5659419e-12
2.9509811e-14
2.5369246e-12
2.9017308e-14
2.5083906e-12
2.8534033e-14
2.480331e-12
2.8059558e-14
2.4527376e-12
2.7593473e-14
2.4256022e-12
2.7135386e-14
2.3989173e-12
2.6684927e-14
2.3726755e-12
2.6241741e-14
2.34687e-12
2.5805499e-14
2.3214941e-12
2.5375884e-14
2.2965415e-12
2.4952604e-14
2.2720061e-12
2.453538e-14
2.2478822e-12
2.4123954e-14
2.2241641e-12
2.3718081e-14
2.2008466e-12
2.3317538e-14
2.1779245e-12
2.2922117e-14
2.1553928e-12
2.2531626e-14
2.1332469e-12
2.2145888e-14
2.1114822e-12
2.1764743e-14
2.0900942e-12
2.1388041e-14
2.0690785e-12
2.1015651e-14
2.0484311e-12
2.0647454e-14
2.0281477e-12
2.0283345e-14
2.0082245e-12
1.992323e-14
1.9886575e-12
1.9567027e-14
1.9694428e-12
1.9214666e-14
1.9505767e-12
1.8866088e-14
1.9320555e-12
1.8521245e-14
1.9138754e-12
1.8180099e-14
1.8960327e-12
1.7842621e-14
1.8785239e-12
1.7508795e-14
1.8613453e-12
1.7178608e-14
1.8444933e-12
1.6852059e-14
1.8279641e-12
1.6529153e-14
1.8117542e-12
1.6209904e-14
1.7958599e-12
1.5894333e-14
1.7802774e-12
1.558247e-14
1.7650031e-12
1.5274346e-14
1.7500331e-12
1.4970003e-14
1.7353636e-12
1.4669486e-14
1.7209907e-12
1.4372848e-14
1.7069106e-12
1.4080143e-14
1.6931191e-12
1.3791438e-14
1.6796123e-12
1.3506796e-14
1.666386e-12
1.3226291e-14
1.653436e-12
1.2949996e-14
1.6407581e-12
1.2677993e-14
1.6283477e-12
1.2410363e-14
1.6162005e-12
1.2147196e-14
1.6043119e-12
1.1888582e-14
1.5926773e-12
1.1634616e-14
1.5812919e-12
1.1385396e-14
1.5701509e-12
1.1141024e-14
1.5592493e-12
1.0901603e-14
1.548582e-12
1.0667243e-14
1.538144e-12
1.0438055e-14
1.5279298e-12
1.0214158e-14
1.5179341e-12
9.995669e-15
1.5081514e-12
9.7827127e-15
1.498576e-12
9.5754157e-15
1.4892021e-12
9.3739135e-15
1.4800237e-12
9.1783436e-15
1.4710349e-12
8.9888547e-15
1.4622293e-12
8.8055986e-15
1.4536006e-12
8.6287409e-15
1.4451421e-12
8.4584552e-15
1.4368472e-12
8.2949325e-15
1.4287088e-12
8.1383783e-15
1.4207198e-12
7.9890232e-15
1.4128726e-12
7.8471238e-15
1.4051597e-12
7.7129763e-15
1.3975727e-12
7.5869224e-15
1.3901034e-12
7.469369e-15
1.3827426e-12
7.3608042e-15
1.3754807e-12
7.2618311e-15
1.3683075e-12
7.1732073e-15
1.3612116e-12
7.0959112e-15
1.3541804e-12
7.0312353e-15
1.3471994e-12
6.9809456e-15
1.3402519e-12
6.9475421e-15
1.3333171e-12
6.934739e-15
1.3263688e-12
6.9483664e-15
1.3193706e-12
6.9981776e-15
1.3122691e-12
7.1015274e-15
1.3049781e-12
7.2909318e-15
1.2973484e-12
7.6297217e-15
1.2891036e-12
8.2448269e-15
1.2797296e-12
9.3740454e-15
1.2683175e-12
1.141204e-14
1.253158e-12
1.5159537e-14
2.2868503e-14
-1.0041723e-12
1.3292999e-12
-2.76833e-12
2.487893e-12
-4.6541551e-12
2.7338585e-12
-6.388837e-12
2.5608973e-12
-7.8709347e-12
2.2361061e-12
-9.0637651e-12
1.8526954e-12
-9.9542472e-12
1.4419424e-12
-1.0539579e-11
1.0169008e-12
-1.0823551e-11
5.8673859e-13
-1.0816226e-11
1.612022e-13
-1.0534133e-11
-2.488911e-13
-1.0000394e-11
-6.323701e-13
-9.2432958e-12
-9.7939992e-13
-8.294317e-12
-1.282855e-12
-7.1866606e-12
-1.5381266e-12
-5.9539144e-12
-1.7429575e-12
-4.6288243e-12
-1.8973622e-12
-3.2420926e-12
-2.0035719e-12
-1.8215088e-12
-2.0654474e-12
-3.9171426e-13
-2.0874317e-12
1.0254043e-12
-2.0742624e-12
2.4112014e-12
-2.0313327e-12
3.7509969e-12
-1.9643916e-12
5.0332407e-12
-1.8785853e-12
6.249085e-12
-1.7785548e-12
7.3921665e-12
-1.668448e-12
8.4582927e-12
-1.5518485e-12
9.4451157e-12
-1.4317848e-12
1.0351826e-11
-1.3107639e-12
1.1178878e-11
-1.1908145e-12
1.192774e-11
-1.07354e-12
1.2600679e-11
-9.6017361e-13
1.3200573e-11
-8.5163297e-13
1.3730752e-11
-7.4857034e-13
1.4194865e-11
-6.514184e-13
1.4596764e-11
-5.604304e-13
1.4940416e-11
-4.7571477e-13
1.5229825e-11
-3.9726464e-13
1.5468973e-11
-3.2498264e-13
1.5661771e-11
-2.5870161e-13
1.581202e-11
-1.9820175e-13
1.5923382e-11
-1.4322481e-13
1.5999358e-11
-9.3485607e-14
1.6043273e-11
-4.8681483e-14
1.6058264e-11
-8.500146e-15
1.6047276e-11
2.7371205e-14
1.6013065e-11
5.9242974e-14
1.5958195e-11
8.7416476e-14
1.5885041e-11
1.1218594e-13
1.5795791e-11
1.3383611e-13
1.5692455e-11
1.5263976e-13
1.5576873e-11
1.6885539e-13
1.5450718e-11
1.8272624e-13
1.5315513e-11
1.944799e-13
1.5172634e-11
2.0432812e-13
1.5023324e-11
2.1246698e-13
1.4868701e-11
2.1907732e-13
1.4709765e-11
2.2432524e-13
1.4547412e-11
2.2836284e-13
1.438244e-11
2.3132888e-13
1.4215554e-11
2.333496e-13
1.4047381e-11
2.345395e-13
1.3878473e-11
2.3500216e-13
1.3709312e-11
2.3483099e-13
1.3540322e-11
2.3411007e-13
1.3371871e-11
2.3291483e-13
1.3204276e-11
2.3131279e-13
1.3037811e-11
2.2936427e-13
1.2872711e-11
2.2712297e-13
1.2709172e-11
2.2463661e-13
1.2547363e-11
2.2194746e-13
1.2387421e-11
2.1909289e-13
1.2229461e-11
2.1610581e-13
1.2073573e-11
2.1301516e-13
1.191983e-11
2.0984625e-13
1.1768287e-11
2.0662118e-13
1.1618984e-11
2.0335917e-13
1.1471948e-11
2.0007685e-13
1.1327195e-11
1.9678852e-13
1.1184732e-11
1.9350648e-13
1.1044556e-11
1.9024116e-13
1.0906657e-11
1.8700139e-13
1.0771021e-11
1.8379458e-13
1.0637626e-11
1.8062686e-13
1.0506447e-11
1.7750324e-13
1.0377457e-11
1.7442777e-13
1.0250623e-11
1.7140361e-13
1.0125913e-11
1.6843319e-13
1.0003291e-11
1.6551828e-13
9.8827208e-12
1.6266008e-13
9.7641642e-12
1.5985928e-13
9.6475835e-12
1.5711618e-13
9.5329402e-12
1.5443068e-13
9.4201961e-12
1.5180238e-13
9.3093128e-12
1.4923064e-13
9.2002525e-12
1.4671456e-13
9.092978e-12
1.4425309e-13
8.9874525e-12
1.4184502e-13
8.8836403e-12
1.39489e-13
8.7815062e-12
1.3718361e-13
8.6810162e-12
1.3492734e-13
8.5821371e-12
1.3271866e-13
8.4848367e-12
1.3055595e-13
8.3890841e-12
1.2843761e-13
8.2948491e-12
1.2636202e-13
8.2021029e-12
1.2432756e-13
8.1108175e-12
1.2233264e-13
8.0209662e-12
1.2037568e-13
7.932523e-12
1.1845511e-13
7.8454634e-12
1.1656942e-13
7.7597636e-12
1.1471714e-13
7.6754008e-12
1.1289684e-13
7.5923532e-12
1.1110713e-13
7.5106e-12
1.0934667e-13
7.4301212e-12
1.076142e-13
7.3508977e-12
1.0590846e-13
7.2729111e-12
1.0422831e-13
7.196144e-12
1.0257262e-13
7.1205796e-12
1.0094033e-13
7.0462017e-12
9.9330453e-14
6.972995e-12
9.7742038e-14
6.9009448e-12
9.6174201e-14
6.8300368e-12
9.4626109e-14
6.7602573e-12
9.3096989e-14
6.6915933e-12
9.1586122e-14
6.6240321e-12
9.0092842e-14
6.5575615e-12
8.8616535e-14
6.4921696e-12
8.7156637e-14
6.427845e-12
8.5712635e-14
6.3645766e-12
8.4284066e-14
6.3023535e-12
8.2870514e-14
6.2411652e-12
8.1471607e-14
6.1810014e-12
8.0087021e-14
6.121852e-12
7.871647e-14
6.063707e-12
7.7359711e-14
6.0065565e-12
7.6016539e-14
5.950391e-12
7.4686791e-14
5.8952007e-12
7.3370339e-14
5.8409763e-12
7.206709e-14
5.7877081e-12
7.0776988e-14
5.7353867e-12
6.9500005e-14
5.6840026e-12
6.8236144e-14
5.6335463e-12
6.698544e-14
5.5840082e-12
6.5747954e-14
5.5353788e-12
6.4523776e-14
5.4876482e-12
6.3313023e-14
5.4408068e-12
6.2115832e-14
5.3948444e-12
6.0932364e-14
5.3497511e-12
5.9762804e-14
5.3055166e-12
5.8607358e-14
5.2621304e-12
5.746625e-14
5.2195821e-12
5.6339726e-14
5.1778609e-12
5.5228048e-14
5.1369557e-12
5.4131496e-14
5.0968553e-12
5.3050365e-14
5.0575483e-12
5.1984967e-14
5.0190231e-12
5.0935628e-14
4.9812676e-12
4.990269e-14
4.9442696e-12
4.8886507e-14
4.9080168e-12
4.7887449e-14
4.8724963e-12
4.6905895e-14
4.8376951e-12
4.594224e-14
4.8035998e-12
4.499689e-14
4.7701968e-12
4.4070265e-14
4.737472e-12
4.3162801e-14
4.7054113e-12
4.2274944e-14
4.6739998e-12
4.1407155e-14
4.6432226e-12
4.0559909e-14
4.6130643e-12
3.9733699e-14
4.5835092e-12
3.8929037e-14
4.554541e-12
3.8146454e-14
4.5261434e-12
3.7386509e-14
4.4982992e-12
3.6649786e-14
4.470991e-12
3.5936904e-14
4.444201e-12
3.5248523e-14
4.4179105e-12
3.4585354e-14
4.3921007e-12
3.3948169e-14
4.366752e-12
3.3337821e-14
4.3418438e-12
3.2755261e-14
4.3173552e-12
3.2201573e-14
4.2932641e-12
3.167801e-14
4.2695474e-12
3.1186045e-14
4.2461808e-12
3.0727446e-14
4.2231383e-12
3.0304381e-14
4.2003919e-12
2.9919569e-14
4.1779113e-12
2.9576496e-14
4.1556628e-12
2.927975e-14
4.1336082e-12
2.903554e-14
4.1117032e-12
2.8852545e-14
4.0898946e-12
2.8743347e-14
4.068116e-12
2.8726981e-14
4.0462806e-12
2.8833577e-14
4.0242691e-12
2.911304e-14
4.0019086e-12
2.965136e-14
3.9789374e-12
3.0600937e-14
3.9549463e-12
3.2235927e-14
3.9292967e-12
3.5023683e-14
3.901011e-12
3.9697721e-14
3.8689653e-12
4.7205299e-14
5.9350067e-14
-1.5293615e-12
2.8586614e-12
-3.8835046e-12
4.8420361e-12
-6.1520132e-12
5.0023671e-12
-8.0470526e-12
4.4559368e-12
-9.4938592e-12
3.6829127e-12
-1.0488652e-11
2.8474885e-12
-1.1053058e-11
2.0063482e-12
-1.1217362e-11
1.1812052e-12
-1.1014795e-11
3.8417157e-13
-1.0480714e-11
-3.7287876e-13
-9.6536249e-12
-1.0759807e-12
-8.5741754e-12
-1.7118196e-12
-7.2832198e-12
-2.2703555e-12
-5.8209306e-12
-2.7451442e-12
-4.2257601e-12
-3.1332972e-12
-2.5338367e-12
-3.4348808e-12
-7.7811609e-13
-3.6530828e-12
1.0115844e-12
-3.7932725e-12
2.808505e-12
-3.8623679e-12
4.5899289e-12
-3.8688556e-12
6.3371931e-12
-3.8215266e-12
8.0349142e-12
-3.7290539e-12
9.6704821e-12
-3.5999595e-12
1.1234027e-11
-3.4421303e-12
1.2718135e-11
-3.2626627e-12
1.41175e-11
-3.0678127e-12
1.5428628e-11
-2.8629766e-12
1.6649565e-11
-2.6527221e-12
1.7779648e-11
-2.4408466e-12
1.8819284e-11
-2.2304509e-12
1.9769764e-11
-2.0240195e-12
2.0633092e-11
-1.8235015e-12
2.1411847e-11
-1.6303879e-12
2.2109059e-11
-1.4457825e-12
2.2728105e-11
-1.2704647e-12
2.327262e-11
-1.1049452e-12
2.3746418e-11
-9.4951337e-13
2.4153431e-11
-8.0427765e-13
2.4497649e-11
-6.6920012e-13
2.4783073e-11
-5.4412536e-13
2.5013676e-11
-4.2880482e-13
2.5193368e-11
-3.2291726e-13
2.5325968e-11
-2.2608592e-13
2.541518e-11
-1.3789285e-13
2.546457e-11
-5.7890709e-14
2.5477556e-11
1.4385713e-14
2.5457393e-11
7.9405427e-14
2.5407183e-11
1.3762647e-13
2.5329856e-11
1.8951317e-13
2.5228165e-11
2.3552712e-13
2.5104687e-11
2.7611826e-13
2.4961822e-11
3.117202e-13
2.48018e-11
3.4274782e-13
2.4626685e-11
3.6959552e-13
2.4438377e-11
3.9263601e-13
2.4238624e-11
4.1221962e-13
2.4029027e-11
4.2867416e-13
2.3811048e-11
4.4230502e-13
2.3586015e-11
4.5339564e-13
2.3355136e-11
4.6220811e-13
2.3119501e-11
4.6898393e-13
2.2880096e-11
4.7394493e-13
2.2637804e-11
4.7729428e-13
2.2393417e-11
4.7921748e-13
2.2147644e-11
4.7988343e-13
2.1901113e-11
4.7944556e-13
2.1654383e-11
4.7804282e-13
2.1407947e-11
4.7580075e-13
2.1162237e-11
4.7283252e-13
2.0917634e-11
4.6923986e-13
2.0674467e-11
4.6511401e-13
2.0433023e-11
4.6053662e-13
2.0193549e-11
4.5558052e-13
1.9956253e-11
4.5031055e-13
1.9721315e-11
4.4478426e-13
1.9488884e-11
4.390526e-13
1.9259083e-11
4.3316052e-13
1.9032012e-11
4.2714756e-13
1.8807752e-11
4.210484e-13
1.8586365e-11
4.148933e-13
1.8367898e-11
4.0870859e-13
1.8152382e-11
4.0251705e-13
1.7939838e-11
3.9633828e-13
1.7730276e-11
3.9018907e-13
1.7523696e-11
3.8408365e-13
1.732009e-11
3.7803403e-13
1.7119443e-11
3.7205022e-13
1.6921736e-11
3.6614042e-13
1.6726943e-11
3.6031132e-13
1.6535035e-11
3.5456819e-13
1.6345979e-11
3.4891509e-13
1.615974e-11
3.4335504e-13
1.597628e-11
3.378901e-13
1.5795561e-11
3.3252153e-13
1.5617542e-11
3.2724991e-13
1.5442181e-11
3.2207517e-13
1.5269438e-11
3.1699677e-13
1.5099269e-11
3.1201369e-13
1.4931634e-11
3.0712457e-13
1.4766489e-11
3.023277e-13
1.4603796e-11
2.9762116e-13
1.4443511e-11
2.9300277e-13
1.4285597e-11
2.8847022e-13
1.4130014e-11
2.8402107e-13
1.3976723e-11
2.7965276e-13
1.3825688e-11
2.7536269e-13
1.3676872e-11
2.7114821e-13
1.3530241e-11
2.6700666e-13
1.3385761e-11
2.6293536e-13
1.3243399e-11
2.5893169e-13
1.3103123e-11
2.5499301e-13
1.2964903e-11
2.5111679e-13
1.282871e-11
2.4730052e-13
1.2694515e-11
2.4354175e-13
1.2562291e-11
2.3983813e-13
1.2432012e-11
2.3618739e-13
1.2303653e-11
2.3258733e-13
1.2177189e-11
2.2903585e-13
1.2052599e-11
2.2553096e-13
1.1929859e-11
2.2207075e-13
1.1808947e-11
2.1865341e-13
1.1689844e-11
2.1527725e-13
1.157253e-11
2.1194066e-13
1.1456984e-11
2.0864214e-13
1.134319e-11
2.053803e-13
1.1231129e-11
2.0215383e-13
1.1120784e-11
1.9896153e-13
1.1012139e-11
1.9580232e-13
1.0905176e-11
1.9267518e-13
1.0799881e-11
1.895792e-13
1.0696238e-11
1.8651358e-13
1.0594232e-11
1.8347758e-13
1.0493848e-11
1.8047057e-13
1.0395073e-11
1.77492e-13
1.0297891e-11
1.7454141e-13
1.0202289e-11
1.7161839e-13
1.0108253e-11
1.6872266e-13
1.001577e-11
1.6585396e-13
9.9248247e-12
1.6301215e-13
9.8354045e-12
1.6019713e-13
9.7474957e-12
1.5740888e-13
9.6610844e-12
1.5464743e-13
9.5761569e-12
1.519129e-13
9.4926994e-12
1.4920544e-13
9.4106979e-12
1.4652527e-13
9.3301383e-12
1.4387267e-13
9.2510061e-12
1.4124796e-13
9.173287e-12
1.3865152e-13
9.096966e-12
1.3608376e-13
9.0220282e-12
1.3354514e-13
8.9484583e-12
1.3103619e-13
8.8762406e-12
1.2855744e-13
8.8053591e-12
1.2610949e-13
8.7357977e-12
1.2369296e-13
8.6675395e-12
1.2130851e-13
8.6005676e-12
1.1895683e-13
8.5348646e-12
1.1663865e-13
8.4704126e-12
1.1435472e-13
8.4071933e-12
1.1210584e-13
8.3451879e-12
1.0989281e-13
8.2843773e-12
1.0771648e-13
8.2247418e-12
1.0557772e-13
8.1662613e-12
1.0347742e-13
8.1089151e-12
1.0141651e-13
8.0526819e-12
9.9395938e-14
7.9975402e-12
9.7416692e-14
7.9434676e-12
9.547978e-14
7.8904412e-12
9.358624e-14
7.8384378e-12
9.1737149e-14
7.7874332e-12
8.9933619e-14
7.7374028e-12
8.8176808e-14
7.6883214e-12
8.646792e-14
7.640163e-12
8.480822e-14
7.5929008e-12
8.3199036e-14
7.5465076e-12
8.1641784e-14
7.500955e-12
8.0137977e-14
7.4562139e-12
7.8689255e-14
7.4122543e-12
7.7297412e-14
7.3690451e-12
7.5964447e-14
7.3265541e-12
7.4692612e-14
7.2847476e-12
7.3484498e-14
7.2435905e-12
7.2343128e-14
7.2030458e-12
7.1272105e-14
7.1630744e-12
7.0275816e-14
7.1236342e-12
6.9359712e-14
7.08468e-12
6.8530727e-14
7.0461619e-12
6.7797891e-14
7.0080241e-12
6.7173266e-14
6.9702033e-12
6.6673421e-14
6.9326248e-12
6.6321808e-14
6.8951991e-12
6.6152711e-14
6.8578147e-12
6.6217983e-14
6.8203291e-12
6.659863e-14
6.7825556e-12
6.742481e-14
6.7442474e-12
6.8909143e-14
6.7050817e-12
7.1401691e-14
6.6646566e-12
7.5448764e-14
6.6225041e-12
8.1850239e-14
6.5784643e-12
9.1245093e-14
1.0543891e-13
-1.8598429e-12
4.7185042e-12
-4.2608248e-12
7.2430181e-12
-6.1822065e-12
6.9237488e-12
-7.4727265e-12
5.7464568e-12
-8.1715964e-12
4.3817826e-12
-8.349009e-12
3.0249012e-12
-8.0792707e-12
1.7366099e-12
-7.4311205e-12
5.3305499e-13
-6.4645342e-12
-5.8241481e-13
-5.2337578e-12
-1.6036551e-12
-3.7889355e-12
-2.520803e-12
-2.1754277e-12
-3.3253274e-12
-4.3405914e-13
-4.011724e-12
1.3984521e-12
-4.5776554e-12
3.2891924e-12
-5.0240375e-12
5.2096917e-12
-5.3553801e-12
7.1354787e-12
-5.5788698e-12
9.0458631e-12
-5.7036569e-12
1.0923759e-11
-5.7402641e-12
1.2755007e-11
-5.700103e-12
1.45282e-11
-5.5947201e-12
1.6234444e-11
-5.4352979e-12
1.7866885e-11
-5.2324001e-12
1.9420439e-11
-4.995684e-12
2.0891531e-11
-4.7337555e-12
2.2277852e-11
-4.4541333e-12
2.3578142e-11
-4.1632665e-12
2.4792016e-11
-3.866596e-12
2.591981e-11
-3.568641e-12
2.6962458e-11
-3.2730991e-12
2.7921387e-11
-2.9829481e-12
2.8798431e-11
-2.7005456e-12
2.9595763e-11
-2.4277199e-12
3.0315833e-11
-2.1658529e-12
3.096132e-11
-1.9159511e-12
3.1535083e-11
-1.6787082e-12
3.2040127e-11
-1.4545577e-12
3.2479567e-11
-1.2437177e-12
3.2856595e-11
-1.0462284e-12
3.3174454e-11
-8.6198422e-13
3.343641e-11
-6.9076025e-13
3.3645728e-11
-5.3223522e-13
3.3805652e-11
-3.860107e-13
3.3919387e-11
-2.5162746e-13
3.3990076e-11
-1.2857967e-13
3.4020787e-11
-1.6324957e-14
3.4014497e-11
8.5695154e-14
3.3974087e-11
1.7803605e-13
3.3902335e-11
2.6126522e-13
3.3801903e-11
3.3595949e-13
3.3675331e-11
4.0269047e-13
3.3525033e-11
4.6201787e-13
3.3353295e-11
5.1448556e-13
3.3162273e-11
5.6061829e-13
3.2953989e-11
6.0091909e-13
3.2730342e-11
6.3586745e-13
3.2493098e-11
6.6591812e-13
3.2243902e-11
6.9150038e-13
3.198428e-11
7.1301777e-13
3.171564e-11
7.308481e-13
3.143928e-11
7.453438e-13
3.1156393e-11
7.5683248e-13
3.0868069e-11
7.6561771e-13
3.0575307e-11
7.7197991e-13
3.0279013e-11
7.7617735e-13
2.9980011e-11
7.7844722e-13
2.9679047e-11
7.7900681e-13
2.9376793e-11
7.7805463e-13
2.9073854e-11
7.7577158e-13
2.8770772e-11
7.7232214e-13
2.8468031e-11
7.6785543e-13
2.8166061e-11
7.6250642e-13
2.7865245e-11
7.563969e-13
2.7565919e-11
7.4963653e-13
2.7268379e-11
7.4232382e-13
2.6972885e-11
7.3454704e-13
2.667966e-11
7.2638506e-13
2.6388899e-11
7.1790818e-13
2.6100769e-11
7.0917891e-13
2.581541e-11
7.002526e-13
2.553294e-11
6.9117817e-13
2.5253458e-11
6.8199867e-13
2.4977045e-11
6.7275185e-13
2.4703763e-11
6.6347068e-13
2.4433663e-11
6.541838e-13
2.4166781e-11
6.4491598e-13
2.3903143e-11
6.3568849e-13
2.3642764e-11
6.2651948e-13
2.3385651e-11
6.1742431e-13
2.3131803e-11
6.0841583e-13
2.2881214e-11
5.9950466e-13
2.2633869e-11
5.9069948e-13
2.2389752e-11
5.8200717e-13
2.2148841e-11
5.7343311e-13
2.1911109e-11
5.6498128e-13
2.167653e-11
5.5665448e-13
2.1445072e-11
5.4845446e-13
2.1216704e-11
5.4038206e-13
2.0991391e-11
5.3243734e-13
2.0769099e-11
5.2461966e-13
2.0549792e-11
5.1692781e-13
2.0333435e-11
5.0936009e-13
2.0119991e-11
5.0191437e-13
1.9909424e-11
4.9458821e-13
1.9701698e-11
4.8737886e-13
1.9496777e-11
4.8028335e-13
1.9294627e-11
4.7329854e-13
1.9095212e-11
4.6642118e-13
1.88985e-11
4.5964789e-13
1.8704456e-11
4.5297528e-13
1.8513049e-11
4.4639991e-13
1.8324248e-11
4.3991835e-13
1.8138021e-11
4.3352719e-13
1.795434e-11
4.2722308e-13
1.7773175e-11
4.2100273e-13
1.7594499e-11
4.1486293e-13
1.7418286e-11
4.0880056e-13
1.7244509e-11
4.0281262e-13
1.7073144e-11
3.9689622e-13
1.6904166e-11
3.9104859e-13
1.6737553e-11
3.8526708e-13
1.6573281e-11
3.795492e-13
1.6411329e-11
3.7389258e-13
1.6251676e-11
3.6829499e-13
1.6094302e-11
3.6275436e-13
1.5939187e-11
3.5726875e-13
1.5786312e-11
3.5183637e-13
1.5635659e-11
3.4645559e-13
1.5487209e-11
3.4112489e-13
1.5340945e-11
3.3584293e-13
1.5196851e-11
3.3060849e-13
1.5054908e-11
3.2542051e-13
1.49151e-11
3.2027803e-13
1.4777412e-11
3.1518026e-13
1.4641827e-11
3.1012652e-13
1.4508329e-11
3.0511628e-13
1.4376902e-11
3.0014909e-13
1.4247532e-11
2.9522468e-13
1.4120201e-11
2.9034285e-13
1.3994895e-11
2.8550354e-13
1.3871597e-11
2.8070678e-13
1.3750291e-11
2.7595271e-13
1.3630963e-11
2.7124159e-13
1.3513594e-11
2.6657376e-13
1.339817e-11
2.6194965e-13
1.3284673e-11
2.5736979e-13
1.3173086e-11
2.5283479e-13
1.3063392e-11
2.4834534e-13
1.2955574e-11
2.4390222e-13
1.2849613e-11
2.3950628e-13
1.274549e-11
2.3515843e-13
1.2643188e-11
2.3085966e-13
1.2542687e-11
2.2661102e-13
1.2443966e-11
2.2241364e-13
1.2347006e-11
2.1826867e-13
1.2251785e-11
2.1417736e-13
1.2158283e-11
2.1014099e-13
1.2066477e-11
2.0616088e-13
1.1976344e-11
2.0223844e-13
1.1887862e-11
1.983751e-13
1.1801006e-11
1.9457233e-13
1.1715752e-11
1.9083166e-13
1.1632075e-11
1.8715466e-13
1.1549948e-11
1.8354296e-13
1.1469346e-11
1.7999821e-13
1.1390241e-11
1.7652213e-13
1.1312604e-11
1.7311648e-13
1.1236407e-11
1.6978306e-13
1.1161621e-11
1.6652373e-13
1.1088214e-11
1.6334043e-13
1.1016155e-11
1.6023514e-13
1.0945413e-11
1.5720994e-13
1.0875955e-11
1.5426699e-13
1.0807745e-11
1.5140856e-13
1.074075e-11
1.4863705e-13
1.0674933e-11
1.4595501e-13
1.0610257e-11
1.433652e-13
1.0546684e-11
1.4087061e-13
1.0484174e-11
1.3847455e-13
1.0422685e-11
1.3618073e-13
1.0362177e-11
1.3399335e-13
1.0302602e-11
1.3191729e-13
1.0243916e-11
1.2995832e-13
1.0186069e-11
1.2812336e-13
1.0129007e-11
1.2642095e-13
1.0072676e-11
1.2486178e-13
1.0017015e-11
1.2345959e-13
9.9619556e-12
1.2223243e-13
9.9074244e-12
1.2120456e-13
9.8533368e-12
1.2040941e-13
9.7995953e-12
1.198942e-13
9.746086e-12
1.1972729e-13
9.6926748e-12
1.2000984e-13
9.6392052e-12
1.2089441e-13
9.5855019e-12
1.2261248e-13
9.5313866e-12
1.2551699e-13
9.4767231e-12
1.3011227e-13
9.421452e-12
1.3712135e-13
9.3658395e-12
1.4685761e-13
1.6197373e-13
-2.0105775e-12
6.7290817e-12
-3.7736966e-12
9.0061371e-12
-4.463979e-12
7.6140312e-12
-4.3421978e-12
5.6246756e-12
-3.6516054e-12
3.6911902e-12
-2.5400391e-12
1.913335e-12
-1.117764e-12
3.1433475e-13
5.2858148e-13
-1.1132905e-12
2.3331125e-12
-2.3869459e-12
4.2430192e-12
-3.5135618e-12
6.2165647e-12
-4.4943485e-12
8.220725e-12
-5.3294878e-12
1.0229331e-11
-6.0203295e-12
1.2221664e-11
-6.569989e-12
1.4181496e-11
-6.9838691e-12
1.6096008e-11
-7.2698921e-12
1.7955247e-11
-7.4381094e-12
1.9751713e-11
-7.5001226e-12
2.1479939e-11
-7.4684899e-12
2.3136027e-11
-7.3561917e-12
2.4717359e-11
-7.1760521e-12
2.6222352e-11
-6.9402901e-12
2.7650196e-11
-6.6602448e-12
2.9000683e-11
-6.3461711e-12
3.0274066e-11
-6.0071381e-12
3.1470952e-11
-5.6510194e-12
3.2592225e-11
-5.2845397e-12
3.3638987e-11
-4.9133579e-12
3.4612517e-11
-4.542171e-12
3.5514245e-11
-4.1748272e-12
3.6345734e-11
-3.8144367e-12
3.7108665e-11
-3.463477e-12
3.7804832e-11
-3.1238868e-12
3.8436129e-11
-2.7971501e-12
3.9004547e-11
-2.4843683e-12
3.951216e-11
-2.1863213e-12
3.9961122e-11
-1.9035199e-12
4.0353654e-11
-1.6362493e-12
4.0692032e-11
-1.3846065e-12
4.0978579e-11
-1.148531e-12
4.121565e-11
-9.2783164e-13
4.1405624e-11
-7.2220892e-13
4.1550887e-11
-5.3127456e-13
4.1653828e-11
-3.5456819e-13
4.171682e-11
-1.9157134e-13
4.1742216e-11
-4.1720853e-14
4.1732336e-11
9.5575098e-14
4.1689452e-11
2.2092039e-13
4.1615778e-11
3.349388e-13
4.1513474e-11
4.3826352e-13
4.1384637e-11
5.3152766e-13
4.1231296e-11
6.1535875e-13
4.1055408e-11
6.9037385e-13
4.0858851e-11
7.5717526e-13
4.0643423e-11
8.1634705e-13
4.0410838e-11
8.6845231e-13
4.0162725e-11
9.1403107e-13
3.9900626e-11
9.5359877e-13
3.9625999e-11
9.8764525e-13
3.9340213e-11
1.0166341e-12
3.9044555e-11
1.0410023e-12
3.8740227e-11
1.0611604e-12
3.8428351e-11
1.0774931e-12
3.8109972e-11
1.090359e-12
3.7786057e-11
1.1000922e-12
3.7457502e-11
1.1070025e-12
3.7125132e-11
1.1113768e-12
3.6789707e-11
1.1134797e-12
3.6451923e-11
1.1135551e-12
3.6112419e-11
1.1118266e-12
3.5771775e-11
1.1084995e-12
3.543052e-11
1.1037613e-12
3.5089134e-11
1.0977829e-12
3.474805e-11
1.0907201e-12
3.440766e-11
1.082714e-12
3.4068314e-11
1.0738927e-12
3.3730328e-11
1.0643719e-12
3.339398e-11
1.0542558e-12
3.3059521e-11
1.0436382e-12
3.272717e-11
1.0326033e-12
3.2397122e-11
1.0212263e-12
3.2069546e-11
1.0095746e-12
3.174459e-11
9.9770769e-13
3.1422382e-11
9.8567874e-13
3.1103031e-11
9.7353456e-13
3.0786631e-11
9.6131637e-13
3.0473259e-11
9.4906034e-13
3.0162981e-11
9.36798e-13
2.9855848e-11
9.2455673e-13
2.9551904e-11
9.1236018e-13
2.925118e-11
9.0022856e-13
2.89537e-11
8.8817909e-13
2.8659481e-11
8.7622623e-13
2.8368532e-11
8.6438202e-13
2.8080857e-11
8.526563e-13
2.7796455e-11
8.4105698e-13
2.7515319e-11
8.2959026e-13
2.723744e-11
8.1826079e-13
2.6962806e-11
8.0707191e-13
2.66914e-11
7.9602576e-13
2.6423204e-11
7.8512345e-13
2.6158199e-11
7.7436519e-13
2.5896363e-11
7.6375043e-13
2.5637673e-11
7.5327795e-13
2.5382106e-11
7.4294596e-13
2.5129637e-11
7.327522e-13
2.4880242e-11
7.22694e-13
2.4633894e-11
7.1276838e-13
2.439057e-11
7.0297212e-13
2.4150244e-11
6.9330176e-13
2.391289e-11
6.8375372e-13
2.3678484e-11
6.7432432e-13
2.3447001e-11
6.650098e-13
2.3218418e-11
6.5580639e-13
2.299271e-11
6.4671034e-13
2.2769855e-11
6.377179e-13
2.2549831e-11
6.2882543e-13
2.2332614e-11
6.2002935e-13
2.2118184e-11
6.1132617e-13
2.190652e-11
6.0271254e-13
2.1697602e-11
5.9418525e-13
2.149141e-11
5.8574121e-13
2.1287925e-11
5.7737752e-13
2.1087128e-11
5.690914e-13
2.0889003e-11
5.6088028e-13
2.069353e-11
5.5274175e-13
2.0500692e-11
5.4467358e-13
2.0310474e-11
5.3667372e-13
2.0122859e-11
5.2874031e-13
1.993783e-11
5.2087166e-13
1.9755372e-11
5.1306629e-13
1.957547e-11
5.053229e-13
1.9398108e-11
4.9764034e-13
1.922327e-11
4.9001767e-13
1.9050943e-11
4.8245412e-13
1.888111e-11
4.7494909e-13
1.8713757e-11
4.6750216e-13
1.8548868e-11
4.6011308e-13
1.8386429e-11
4.5278173e-13
1.8226425e-11
4.455082e-13
1.8068839e-11
4.3829268e-13
1.7913656e-11
4.3113556e-13
1.776086e-11
4.2403733e-13
1.7610435e-11
4.1699864e-13
1.7462365e-11
4.1002028e-13
1.7316631e-11
4.0310315e-13
1.7173218e-11
3.962483e-13
1.7032106e-11
3.8945686e-13
1.6893278e-11
3.8273012e-13
1.6756715e-11
3.7606944e-13
1.6622397e-11
3.6947631e-13
1.6490305e-11
3.6295231e-13
1.6360417e-11
3.5649911e-13
1.6232712e-11
3.5011848e-13
1.6107168e-11
3.4381227e-13
1.5983763e-11
3.3758243e-13
1.5862473e-11
3.3143095e-13
1.5743274e-11
3.2535995e-13
1.5626141e-11
3.1937158e-13
1.5511048e-11
3.1346808e-13
1.5397969e-11
3.0765176e-13
1.5286875e-11
3.0192498e-13
1.517774e-11
2.9629018e-13
1.5070533e-11
2.9074987e-13
1.4965224e-11
2.8530662e-13
1.4861783e-11
2.7996306e-13
1.4760178e-11
2.7472189e-13
1.4660375e-11
2.6958589e-13
1.4562341e-11
2.6455791e-13
1.4466041e-11
2.596409e-13
1.4371438e-11
2.5483788e-13
1.4278496e-11
2.50152e-13
1.4187176e-11
2.4558653e-13
1.409744e-11
2.4114488e-13
1.4009246e-11
2.3683064e-13
1.3922554e-11
2.3264762e-13
1.3837319e-11
2.2859988e-13
1.3753498e-11
2.2469183e-13
1.3671044e-11
2.2092826e-13
1.358991e-11
2.1731452e-13
1.3510047e-11
2.1385663e-13
1.3431403e-11
2.1056146e-13
1.3353924e-11
2.0743706e-13
1.3277554e-11
2.0449295e-13
1.3202235e-11
2.0174073e-13
1.3127902e-11
1.9919468e-13
1.3054489e-11
1.9687284e-13
1.2981923e-11
1.9479843e-13
1.2910125e-11
1.9300192e-13
1.2839011e-11
1.9152412e-13
1.2768484e-11
1.9042065e-13
1.2698443e-11
1.8976873e-13
1.2628775e-11
1.8967698e-13
1.255937e-11
1.9029974e-13
1.2490127e-11
1.9185563e-13
1.2420988e-11
1.9465591e-13
1.2351996e-11
1.9910487e-13
1.2283305e-11
2.0581185e-13
1.2215352e-11
2.1481082e-13
2.2993944e-13
-1.8774794e-12
8.6065611e-12
-1.7978823e-12
8.9265399e-12
-4.4159987e-14
5.8603089e-12
2.3204192e-12
3.2600964e-12
4.8700507e-12
1.1415587e-12
7.4808506e-12
-6.9746498e-13
1.0076015e-11
-2.28083e-12
1.2601578e-11
-3.6388532e-12
1.5026701e-11
-4.812069e-12
1.7337649e-11
-5.8245099e-12
1.9529909e-11
-6.6866086e-12
2.1604106e-11
-7.4036848e-12
2.3563662e-11
-7.9798849e-12
2.5413464e-11
-8.4197914e-12
2.7159092e-11
-8.7294972e-12
2.8806307e-11
-8.9171072e-12
3.0360795e-11
-8.9925974e-12
3.1828015e-11
-8.967342e-12
3.3213083e-11
-8.8535582e-12
3.4520662e-11
-8.6637704e-12
3.5754909e-11
-8.4102994e-12
3.6919475e-11
-8.1048561e-12
3.8017502e-11
-7.7582715e-12
3.9051657e-11
-7.380326e-12
4.0024189e-11
-6.97967e-12
4.0936992e-11
-6.5638226e-12
4.1791675e-11
-6.1392227e-12
4.258963e-11
-5.7113126e-12
4.3332096e-11
-5.2846377e-12
4.4020222e-11
-4.8629526e-12
4.4655108e-11
-4.4493231e-12
4.5237853e-11
-4.046222e-12
4.576958e-11
-3.6556134e-12
4.6251458e-11
-3.279028e-12
4.6684716e-11
-2.9176264e-12
4.7070649e-11
-2.5722546e-12
4.7410619e-11
-2.2434901e-12
4.7706052e-11
-1.9316821e-12
4.7958431e-11