/*--------------------------------*- C++ -*----------------------------------*\
| =========                 |                                                 |
| \\      /  F ield         | OpenFOAM: The Open Source CFD Toolbox           |
|  \\    /   O peration     | Version:  2406                                  |
|   \\  /    A nd           | Website:  www.openfoam.com                      |
|    \\/     M anipulation  |                                                 |
\*---------------------------------------------------------------------------*/
FoamFile
{
    version     2.0;
    format      ascii;
    arch        "LSB;label=32;scalar=64";
    class       volVectorField;
    location    "928";
    object      U;
}
// * * * * * * * * * * * * * * * * * * * * * * * * * * * * * * * * * * * * * //

dimensions      [0 1 -1 0 0 0 0];

internalField   nonuniform List<vector> 
9000
(
(-0.0001547242 0.00012680359 0)
(-0.0013674116 0.00030240008 0)
(-0.0030833264 0.00036837186 0)
(-0.0048931262 0.00037162865 0)
(-0.0065738251 0.0003605981 0)
(-0.0080693883 0.00034082314 0)
(-0.0093492682 0.00031260309 0)
(-0.01038754 0.00027554554 0)
(-0.011162571 0.00022990225 0)
(-0.011658932 0.0001768696 0)
(-0.011869533 0.00011846172 0)
(-0.011796787 5.7528874e-05 0)
(-0.011453369 -3.0004547e-06 0)
(-0.010861023 -6.036594e-05 0)
(-0.010048688 -0.00011224042 0)
(-0.009050334 -0.00015682632 0)
(-0.0079027534 -0.00019297563 0)
(-0.0066433244 -0.00022027979 0)
(-0.0053080939 -0.00023891951 0)
(-0.0039307113 -0.00024930175 0)
(-0.0025413158 -0.00025239862 0)
(-0.0011657442 -0.00024936884 0)
(0.00017449581 -0.00024095182 0)
(0.0014622776 -0.00022825083 0)
(0.0026845149 -0.00021272324 0)
(0.0038315047 -0.00019550678 0)
(0.0048968851 -0.00017739648 0)
(0.0058771503 -0.00015902954 0)
(0.0067710536 -0.00014091022 0)
(0.0075791635 -0.00012341582 0)
(0.0083034671 -0.00010681416 0)
(0.0089470203 -9.1282756e-05 0)
(0.0095136511 -7.6926547e-05 0)
(0.010007713 -6.3793754e-05 0)
(0.010433884 -5.1889545e-05 0)
(0.010797008 -4.1187438e-05 0)
(0.011101967 -3.1638581e-05 0)
(0.011353587 -2.3179114e-05 0)
(0.011556561 -1.5735903e-05 0)
(0.011715404 -9.2309098e-06 0)
(0.011834407 -3.5844573e-06 0)
(0.011917619 1.2823985e-06 0)
(0.01196883 5.4462157e-06 0)
(0.011991565 8.9799879e-06 0)
(0.011989083 1.1951813e-05 0)
(0.011964385 1.4424722e-05 0)
(0.011920216 1.6458744e-05 0)
(0.011859078 1.8106838e-05 0)
(0.011783247 1.9416443e-05 0)
(0.011694783 2.0431228e-05 0)
(0.011595544 2.1190911e-05 0)
(0.011487198 2.1731059e-05 0)
(0.011371237 2.2083334e-05 0)
(0.011248989 2.2275789e-05 0)
(0.011121637 2.2333143e-05 0)
(0.010990224 2.2277082e-05 0)
(0.010855673 2.2126562e-05 0)
(0.010718796 2.1898098e-05 0)
(0.0105803 2.1606027e-05 0)
(0.010440806 2.126275e-05 0)
(0.010300851 2.0878954e-05 0)
(0.0101609 2.0463819e-05 0)
(0.010021353 2.0025194e-05 0)
(0.009882551 1.9569763e-05 0)
(0.0097447848 1.9103188e-05 0)
(0.0096082993 1.8630243e-05 0)
(0.0094732987 1.8154928e-05 0)
(0.0093399523 1.7680569e-05 0)
(0.0092083976 1.7209911e-05 0)
(0.0090787453 1.6745198e-05 0)
(0.0089510818 1.6288239e-05 0)
(0.0088254729 1.5840475e-05 0)
(0.0087019662 1.5403028e-05 0)
(0.008580594 1.4976749e-05 0)
(0.0084613747 1.4562258e-05 0)
(0.0083443156 1.4159982e-05 0)
(0.008229414 1.3770184e-05 0)
(0.0081166589 1.3392987e-05 0)
(0.0080060323 1.3028402e-05 0)
(0.0078975106 1.2676346e-05 0)
(0.0077910651 1.2336657e-05 0)
(0.0076866635 1.2009112e-05 0)
(0.0075842702 1.1693436e-05 0)
(0.0074838473 1.1389315e-05 0)
(0.0073853551 1.1096406e-05 0)
(0.0072887523 1.0814342e-05 0)
(0.0071939971 1.0542739e-05 0)
(0.0071010469 1.0281205e-05 0)
(0.0070098593 1.002934e-05 0)
(0.0069203916 9.7867443e-06 0)
(0.0068326016 9.5530182e-06 0)
(0.0067464478 9.3277677e-06 0)
(0.0066618893 9.1106036e-06 0)
(0.0065788858 8.9011461e-06 0)
(0.0064973984 8.699023e-06 0)
(0.0064173888 8.5038739e-06 0)
(0.0063388202 8.3153485e-06 0)
(0.0062616565 8.133111e-06 0)
(0.0061858633 7.9568362e-06 0)
(0.0061114069 7.7862133e-06 0)
(0.0060382553 7.6209423e-06 0)
(0.0059663773 7.4607378e-06 0)
(0.0058957432 7.3053254e-06 0)
(0.0058263244 7.1544468e-06 0)
(0.0057580936 7.0078536e-06 0)
(0.0056910244 6.8653124e-06 0)
(0.0056250919 6.7265988e-06 0)
(0.0055602721 6.5915022e-06 0)
(0.0054965419 6.4598218e-06 0)
(0.0054338797 6.3313706e-06 0)
(0.0053722645 6.2059707e-06 0)
(0.0053116764 6.0834559e-06 0)
(0.0052520965 5.9636689e-06 0)
(0.0051935067 5.8464617e-06 0)
(0.0051358897 5.7316955e-06 0)
(0.0050792291 5.6192416e-06 0)
(0.0050235091 5.5089781e-06 0)
(0.004968715 5.4007949e-06 0)
(0.0049148322 5.2945864e-06 0)
(0.0048618473 5.190257e-06 0)
(0.0048097472 5.0877153e-06 0)
(0.0047585194 4.9868786e-06 0)
(0.004708152 4.8876687e-06 0)
(0.0046586335 4.7900171e-06 0)
(0.004609953 4.6938581e-06 0)
(0.0045620997 4.5991345e-06 0)
(0.0045150637 4.505791e-06 0)
(0.004468835 4.4137794e-06 0)
(0.0044234041 4.3230546e-06 0)
(0.0043787618 4.2335786e-06 0)
(0.0043348992 4.1453159e-06 0)
(0.0042918075 4.0582363e-06 0)
(0.0042494783 3.9723127e-06 0)
(0.0042079032 3.8875207e-06 0)
(0.0041670741 3.8038397e-06 0)
(0.004126983 3.7212529e-06 0)
(0.0040876219 3.6397452e-06 0)
(0.004048983 3.5593074e-06 0)
(0.0040110585 3.4799303e-06 0)
(0.0039738409 3.4016094e-06 0)
(0.0039373223 3.3243397e-06 0)
(0.0039014952 3.2481204e-06 0)
(0.0038663519 3.1729507e-06 0)
(0.0038318847 3.0988354e-06 0)
(0.0037980858 3.0257779e-06 0)
(0.0037649476 2.9537864e-06 0)
(0.0037324621 2.882867e-06 0)
(0.0037006215 2.8130301e-06 0)
(0.0036694177 2.7442845e-06 0)
(0.0036388426 2.6766454e-06 0)
(0.0036088881 2.6101238e-06 0)
(0.0035795457 2.5447382e-06 0)
(0.0035508071 2.4805008e-06 0)
(0.0035226634 2.4174323e-06 0)
(0.0034951061 2.3555469e-06 0)
(0.003468126 2.2948672e-06 0)
(0.0034417141 2.2354098e-06 0)
(0.0034158612 2.1771989e-06 0)
(0.0033905576 2.1202539e-06 0)
(0.0033657937 2.0645997e-06 0)
(0.0033415597 2.0102578e-06 0)
(0.0033178454 1.9572538e-06 0)
(0.0032946405 1.9056112e-06 0)
(0.0032719345 1.8553589e-06 0)
(0.0032497166 1.8065228e-06 0)
(0.0032279758 1.759133e-06 0)
(0.0032067008 1.713217e-06 0)
(0.0031858801 1.6688061e-06 0)
(0.003165502 1.6259304e-06 0)
(0.0031455543 1.5846257e-06 0)
(0.0031260247 1.5449254e-06 0)
(0.0031069006 1.5068691e-06 0)
(0.003088169 1.4704942e-06 0)
(0.0030698167 1.4358454e-06 0)
(0.00305183 1.4029672e-06 0)
(0.0030341948 1.3719121e-06 0)
(0.0030168967 1.3427347e-06 0)
(0.0029999208 1.3154996e-06 0)
(0.0029832517 1.2902781e-06 0)
(0.0029668733 1.2671563e-06 0)
(0.0029507691 1.2462331e-06 0)
(0.0029349217 1.2276292e-06 0)
(0.0029193125 1.2114898e-06 0)
(0.0029039222 1.1979978e-06 0)
(0.0028887298 1.1873842e-06 0)
(0.0028737127 1.1799519e-06 0)
(0.0028588458 1.176104e-06 0)
(0.0028441009 1.1764018e-06 0)
(0.0028294457 1.1816628e-06 0)
(0.0028148414 1.1931659e-06 0)
(0.0028002398 1.2130816e-06 0)
(0.0027855774 1.2454457e-06 0)
(0.0027707649 1.2983078e-06 0)
(0.0027556649 1.3884124e-06 0)
(0.0027400441 1.5528358e-06 0)
(0.0027234817 1.8797999e-06 0)
(0.0027053079 2.5279653e-06 0)
(0.0026842569 3.636278e-06 0)
(0.0026547026 6.1460491e-06 0)
(0.0026078849 1.6046179e-05 0)
(-0.00055790998 0.0014494799 0)
(-0.0038494932 0.002902789 0)
(-0.0078365648 0.0033186976 0)
(-0.011746469 0.0032055179 0)
(-0.015162881 0.0028939976 0)
(-0.017986897 0.0024976228 0)
(-0.020181046 0.0020511012 0)
(-0.021732038 0.0015681724 0)
(-0.022641551 0.001059959 0)
(-0.022924039 0.00053975009 0)
(-0.022606946 2.358742e-05 0)
(-0.021733272 -0.00047185871 0)
(-0.02035814 -0.00093054389 0)
(-0.018544999 -0.0013397736 0)
(-0.016362694 -0.0016905605 0)
(-0.013882145 -0.0019774468 0)
(-0.011173756 -0.0021985488 0)
(-0.0083046916 -0.0023554852 0)
(-0.0053366998 -0.0024524737 0)
(-0.002325764 -0.002494899 0)
(0.00067895438 -0.0024892504 0)
(0.0036361739 -0.0024429803 0)
(0.006511676 -0.0023633591 0)
(0.0092772058 -0.0022574359 0)
(0.01191108 -0.0021320557 0)
(0.01439739 -0.0019931994 0)
(0.016725149 -0.0018458903 0)
(0.018887599 -0.0016943423 0)
(0.020881534 -0.0015420129 0)
(0.022706691 -0.0013916642 0)
(0.024365196 -0.0012454406 0)
(0.025861075 -0.0011049523 0)
(0.027199828 -0.00097135703 0)
(0.028388061 -0.00084543669 0)
(0.029433181 -0.0007276666 0)
(0.030343138 -0.00061827604 0)
(0.031126206 -0.00051730025 0)
(0.031790816 -0.00042462427 0)
(0.032345404 -0.00034001935 0)
(0.032798305 -0.00026317296 0)
(0.033157655 -0.00019371311 0)
(0.033431328 -0.00013122802 0)
(0.033626876 -7.5281743e-05 0)
(0.033751495 -2.5426705e-05 0)
(0.033811998 1.8784178e-05 0)
(0.033814781 5.7789577e-05 0)
(0.033765854 9.2020342e-05 0)
(0.033670817 0.0001218883 0)
(0.03353487 0.00014778362 0)
(0.033362815 0.00017007697 0)
(0.033159071 0.00018911804 0)
(0.032927685 0.00020523375 0)
(0.032672354 0.00021872764 0)
(0.032396437 0.00022988001 0)
(0.032102982 0.00023894837 0)
(0.031794743 0.00024616818 0)
(0.031474199 0.00025175397 0)
(0.031143577 0.00025590047 0)
(0.03080487 0.00025878393 0)
(0.030459854 0.00026056334 0)
(0.03011011 0.00026138175 0)
(0.029757037 0.00026136749 0)
(0.02940187 0.0002606354 0)
(0.029045697 0.00025928794 0)
(0.028689468 0.00025741634 0)
(0.028334013 0.0002551016 0)
(0.027980051 0.00025241542 0)
(0.027628202 0.00024942115 0)
(0.027278999 0.00024617459 0)
(0.026932895 0.00024272473 0)
(0.026590272 0.0002391145 0)
(0.02625145 0.00023538134 0)
(0.025916692 0.00023155784 0)
(0.025586213 0.00022767224 0)
(0.025260184 0.00022374891 0)
(0.024938737 0.00021980879 0)
(0.024621973 0.00021586975 0)
(0.024309961 0.000211947 0)
(0.024002745 0.00020805334 0)
(0.023700348 0.00020419949 0)
(0.023402774 0.00020039431 0)
(0.023110009 0.00019664504 0)
(0.022822027 0.00019295752 0)
(0.022538789 0.00018933634 0)
(0.022260247 0.000185785 0)
(0.021986344 0.00018230609 0)
(0.021717017 0.00017890136 0)
(0.021452198 0.00017557188 0)
(0.021191813 0.00017231811 0)
(0.020935788 0.00016914001 0)
(0.020684043 0.00016603709 0)
(0.0204365 0.00016300852 0)
(0.020193076 0.00016005314 0)
(0.019953692 0.00015716954 0)
(0.019718267 0.00015435612 0)
(0.019486719 0.00015161109 0)
(0.019258972 0.00014893255 0)
(0.019034945 0.0001463185 0)
(0.018814563 0.00014376685 0)
(0.018597752 0.00014127548 0)
(0.018384437 0.00013884223 0)
(0.01817455 0.00013646493 0)
(0.01796802 0.00013414143 0)
(0.017764781 0.00013186958 0)
(0.017564769 0.00012964727 0)
(0.017367921 0.00012747241 0)
(0.017174179 0.00012534299 0)
(0.016983484 0.00012325701 0)
(0.016795781 0.00012121256 0)
(0.016611017 0.00011920778 0)
(0.01642914 0.00011724086 0)
(0.016250102 0.0001153101 0)
(0.016073857 0.00011341382 0)
(0.015900358 0.00011155045 0)
(0.015729563 0.00010971848 0)
(0.015561431 0.00010791645 0)
(0.015395923 0.00010614301 0)
(0.015233001 0.00010439687 0)
(0.015072628 0.00010267679 0)
(0.014914771 0.00010098164 0)
(0.014759395 9.9310324e-05 0)
(0.01460647 9.7661837e-05 0)
(0.014455965 9.6035232e-05 0)
(0.01430785 9.442963e-05 0)
(0.014162097 9.2844218e-05 0)
(0.01401868 9.1278246e-05 0)
(0.013877572 8.9731022e-05 0)
(0.013738747 8.8201913e-05 0)
(0.013602182 8.6690343e-05 0)
(0.013467852 8.5195794e-05 0)
(0.013335735 8.3717799e-05 0)
(0.013205808 8.2255946e-05 0)
(0.013078049 8.0809869e-05 0)
(0.012952436 7.937925e-05 0)
(0.012828948 7.7963816e-05 0)
(0.012707565 7.6563336e-05 0)
(0.012588267 7.5177623e-05 0)
(0.012471031 7.3806533e-05 0)
(0.01235584 7.2449958e-05 0)
(0.012242672 7.1107828e-05 0)
(0.012131508 6.9780107e-05 0)
(0.012022327 6.8466789e-05 0)
(0.01191511 6.7167902e-05 0)
(0.011809837 6.5883506e-05 0)
(0.011706487 6.4613688e-05 0)
(0.01160504 6.3358565e-05 0)
(0.011505476 6.2118275e-05 0)
(0.011407773 6.0892985e-05 0)
(0.011311911 5.9682878e-05 0)
(0.011217868 5.8488168e-05 0)
(0.011125623 5.7309085e-05 0)
(0.011035153 5.6145884e-05 0)
(0.010946436 5.4998833e-05 0)
(0.010859449 5.3868223e-05 0)
(0.010774169 5.2754356e-05 0)
(0.010690571 5.1657559e-05 0)
(0.010608633 5.0578164e-05 0)
(0.010528327 4.9516528e-05 0)
(0.01044963 4.8473017e-05 0)
(0.010372515 4.7448016e-05 0)
(0.010296956 4.6441918e-05 0)
(0.010222925 4.5455132e-05 0)
(0.010150395 4.4488078e-05 0)
(0.010079337 4.3541198e-05 0)
(0.010009722 4.2614941e-05 0)
(0.0099415205 4.1709776e-05 0)
(0.0098747019 4.0826183e-05 0)
(0.0098092349 3.9964659e-05 0)
(0.0097450875 3.9125719e-05 0)
(0.0096822269 3.83099e-05 0)
(0.0096206197 3.7517761e-05 0)
(0.0095602312 3.6749893e-05 0)
(0.0095010263 3.6006912e-05 0)
(0.0094429688 3.5289476e-05 0)
(0.0093860213 3.4598286e-05 0)
(0.0093301456 3.3934104e-05 0)
(0.0092753023 3.3297759e-05 0)
(0.0092214507 3.269017e-05 0)
(0.0091685488 3.2112369e-05 0)
(0.009116553 3.156554e-05 0)
(0.0090654179 3.1051055e-05 0)
(0.0090150961 3.0570541e-05 0)
(0.0089655378 3.0125957e-05 0)
(0.00891669 2.9719724e-05 0)
(0.0088684965 2.9354888e-05 0)
(0.0088208961 2.9035382e-05 0)
(0.0087738217 2.876642e-05 0)
(0.0087271985 2.8555121e-05 0)
(0.0086809405 2.8411569e-05 0)
(0.0086349469 2.8350677e-05 0)
(0.0085890944 2.839565e-05 0)
(0.0085432263 2.8584679e-05 0)
(0.0084971332 2.8984154e-05 0)
(0.0084505211 2.9714994e-05 0)
(0.0084029501 3.100453e-05 0)
(0.0083537393 3.3286561e-05 0)
(0.0083019645 3.7349836e-05 0)
(0.0082461652 4.4533876e-05 0)
(0.0081806522 5.6832435e-05 0)
(0.0080922032 7.7420896e-05 0)
(-0.00091689632 0.0040268707 0)
(-0.0056723348 0.0071756762 0)
(-0.0107088 0.007700324 0)
(-0.015185779 0.0070915288 0)
(-0.018714769 0.0060781012 0)
(-0.021273746 0.0049197504 0)
(-0.022897506 0.0037069194 0)
(-0.02364528 0.0024776391 0)
(-0.023584641 0.0012571308 0)
(-0.022786736 7.0660345e-05 0)
(-0.021330487 -0.0010546644 0)
(-0.019300914 -0.0020915267 0)
(-0.01678347 -0.0030176066 0)
(-0.013864059 -0.0038172177 0)
(-0.010625971 -0.0044816057 0)
(-0.0071479034 -0.0050080125 0)
(-0.0035033591 -0.0053990756 0)
(0.00024098784 -0.0056619675 0)
(0.004026511 -0.0058072981 0)
(0.0078025511 -0.0058480141 0)
(0.011525363 -0.0057977619 0)
(0.015158737 -0.0056707546 0)
(0.018673381 -0.0054814104 0)
(0.022045691 -0.0052430244 0)
(0.02525755 -0.0049675913 0)
(0.028295678 -0.0046657491 0)
(0.031150923 -0.0043467121 0)
(0.033817647 -0.0040182997 0)
(0.036293188 -0.0036870135 0)
(0.038577363 -0.0033581502 0)
(0.040672036 -0.0030359337 0)
(0.042580744 -0.0027236517 0)
(0.044308376 -0.0024237898 0)
(0.045860891 -0.0021381554 0)
(0.047245082 -0.0018679899 0)
(0.048468374 -0.0016140674 0)
(0.049538646 -0.0013767807 0)
(0.050464085 -0.0011562141 0)
(0.051253059 -0.00095220583 0)
(0.051914007 -0.00076440053 0)
(0.052455345 -0.00059229266 0)
(0.05288539 -0.00043526333 0)
(0.053212295 -0.00029261058 0)
(0.053443992 -0.00016357439 0)
(0.053588146 -4.735677e-05 0)
(0.053652128 5.6853557e-05 0)
(0.053642945 0.00014985769 0)
(0.053567309 0.00023245221 0)
(0.053431572 0.00030542206 0)
(0.053241721 0.00036953487 0)
(0.053003368 0.00042553029 0)
(0.052721753 0.00047411344 0)
(0.052401748 0.00051595206 0)
(0.052047872 0.00055167469 0)
(0.051664295 0.00058186957 0)
(0.051254856 0.00060708447 0)
(0.050823076 0.00062782722 0)
(0.050372175 0.00064456673 0)
(0.049905089 0.00065773439 0)
(0.049424483 0.00066772566 0)
(0.048932773 0.00067490193 0)
(0.04843214 0.00067959244 0)
(0.047924547 0.00068209622 0)
(0.047411756 0.00068268416 0)
(0.046895342 0.000681601 0)
(0.046376709 0.00067906721 0)
(0.045857105 0.00067528096 0)
(0.045337633 0.00067041988 0)
(0.044819264 0.00066464282 0)
(0.044302853 0.00065809145 0)
(0.043789144 0.00065089182 0)
(0.043278784 0.00064315575 0)
(0.04277233 0.0006349822 0)
(0.042270261 0.0006264585 0)
(0.041772986 0.00061766145 0)
(0.041280845 0.0006086584 0)
(0.040794126 0.0005995082 0)
(0.040313062 0.00059026205 0)
(0.039837843 0.00058096435 0)
(0.039368616 0.00057165337 0)
(0.038905497 0.00056236197 0)
(0.038448565 0.00055311813 0)
(0.037997877 0.00054394555 0)
(0.037553461 0.00053486409 0)
(0.037115329 0.00052589025 0)
(0.036683472 0.00051703754 0)
(0.036257865 0.00050831684 0)
(0.035838472 0.00049973673 0)
(0.035425244 0.00049130374 0)
(0.035018124 0.00048302268 0)
(0.034617046 0.00047489679 0)
(0.034221938 0.00046692798 0)
(0.033832723 0.00045911703 0)
(0.03344932 0.00045146371 0)
(0.033071646 0.00044396697 0)
(0.032699614 0.00043662502 0)
(0.032333136 0.00042943549 0)
(0.031972125 0.00042239551 0)
(0.031616491 0.00041550178 0)
(0.031266148 0.00040875069 0)
(0.030921007 0.00040213836 0)
(0.030580983 0.00039566071 0)
(0.030245991 0.00038931353 0)
(0.029915947 0.00038309247 0)
(0.02959077 0.00037699318 0)
(0.029270382 0.00037101123 0)
(0.028954705 0.00036514225 0)
(0.028643664 0.00035938186 0)
(0.028337187 0.00035372578 0)
(0.028035204 0.00034816977 0)
(0.027737647 0.00034270972 0)
(0.02744445 0.00033734162 0)
(0.027155551 0.00033206157 0)
(0.026870889 0.00032686582 0)
(0.026590405 0.00032175074 0)
(0.026314045 0.00031671286 0)
(0.026041752 0.00031174885 0)
(0.025773477 0.00030685554 0)
(0.025509169 0.00030202993 0)
(0.02524878 0.00029726916 0)
(0.024992264 0.00029257054 0)
(0.024739577 0.00028793153 0)
(0.024490677 0.00028334975 0)
(0.024245522 0.00027882299 0)
(0.024004073 0.00027434917 0)
(0.023766292 0.00026992638 0)
(0.023532143 0.00026555286 0)
(0.023301589 0.00026122699 0)
(0.023074595 0.00025694729 0)
(0.02285113 0.00025271243 0)
(0.022631159 0.0002485212 0)
(0.02241465 0.00024437256 0)
(0.022201574 0.00024026554 0)
(0.021991898 0.00023619935 0)
(0.021785593 0.00023217328 0)
(0.02158263 0.00022818674 0)
(0.021382978 0.00022423927 0)
(0.02118661 0.00022033052 0)
(0.020993496 0.00021646021 0)
(0.020803607 0.0002126282 0)
(0.020616914 0.00020883442 0)
(0.02043339 0.00020507889 0)
(0.020253004 0.00020136172 0)
(0.020075729 0.0001976831 0)
(0.019901534 0.00019404332 0)
(0.01973039 0.00019044272 0)
(0.019562267 0.00018688172 0)
(0.019397135 0.00018336081 0)
(0.019234963 0.00017988054 0)
(0.019075719 0.00017644152 0)
(0.018919372 0.00017304444 0)
(0.018765889 0.00016969003 0)
(0.018615236 0.00016637906 0)
(0.018467381 0.00016311238 0)
(0.018322287 0.00015989087 0)
(0.01817992 0.00015671545 0)
(0.018040244 0.0001535871 0)
(0.01790322 0.00015050683 0)
(0.017768812 0.00014747571 0)
(0.01763698 0.00014449483 0)
(0.017507685 0.00014156532 0)
(0.017380884 0.00013868836 0)
(0.017256537 0.00013586515 0)
(0.017134601 0.00013309695 0)
(0.017015031 0.00013038504 0)
(0.016897782 0.00012773076 0)
(0.016782808 0.00012513547 0)
(0.016670062 0.00012260058 0)
(0.016559495 0.00012012755 0)
(0.016451056 0.0001177179 0)
(0.016344695 0.00011537321 0)
(0.01624036 0.00011309513 0)
(0.016137995 0.00011088538 0)
(0.016037546 0.0001087458 0)
(0.015938957 0.00010667833 0)
(0.015842167 0.00010468507 0)
(0.015747117 0.00010276829 0)
(0.015653746 0.0001009305 0)
(0.015561987 9.9174491e-05 0)
(0.015471775 9.7503446e-05 0)
(0.015383041 9.5921028e-05 0)
(0.015295712 9.4431543e-05 0)
(0.015209713 9.3040156e-05 0)
(0.015124963 9.1753185e-05 0)
(0.015041378 9.0578541e-05 0)
(0.014958866 8.9526356e-05 0)
(0.014877327 8.860993e-05 0)
(0.014796651 8.7847211e-05 0)
(0.014716714 8.7263153e-05 0)
(0.014637372 8.6893654e-05 0)
(0.014558455 8.6792319e-05 0)
(0.014479756 8.7042441e-05 0)
(0.014401012 8.7778552e-05 0)
(0.014321886 8.922531e-05 0)
(0.014241929 9.1765987e-05 0)
(0.014160535 9.606043e-05 0)
(0.014077064 0.00010318628 0)
(0.013990817 0.00011477359 0)
(0.013898901 0.00013246792 0)
(0.013780019 0.00015945688 0)
(-0.0012257123 0.0074850186 0)
(-0.0066649459 0.012179387 0)
(-0.011316345 0.012228971 0)
(-0.014717478 0.010614705 0)
(-0.016772847 0.0085175027 0)
(-0.017651158 0.0063274012 0)
(-0.017512273 0.0041762431 0)
(-0.016509212 0.0021123285 0)
(-0.014775475 0.00015774878 0)
(-0.01243091 -0.0016673335 0)
(-0.0095871376 -0.0033368301 0)
(-0.0063433179 -0.004826139 0)
(-0.0027902979 -0.0061177642 0)
(0.0009898893 -0.0072015183 0)
(0.0049234088 -0.0080745342 0)
(0.0089471356 -0.0087409916 0)
(0.013006019 -0.0092111647 0)
(0.017052646 -0.0094997097 0)
(0.02104743 -0.00962431 0)
(0.02495776 -0.0096051307 0)
(0.028756851 -0.0094629482 0)
(0.032423437 -0.0092181098 0)
(0.0359411 -0.0088901924 0)
(0.039297375 -0.0084972251 0)
(0.042483225 -0.0080553656 0)
(0.04549253 -0.0075788129 0)
(0.0483216 -0.0070797995 0)
(0.050968762 -0.0065686747 0)
(0.053434012 -0.006054049 0)
(0.055718729 -0.0055429691 0)
(0.057825432 -0.0050411045 0)
(0.059757586 -0.0045529309 0)
(0.061519438 -0.0040819031 0)
(0.063115879 -0.0036306119 0)
(0.064552329 -0.003200923 0)
(0.06583464 -0.002794098 0)
(0.066969005 -0.0024108978 0)
(0.067961884 -0.0020516708 0)
(0.068819934 -0.0017164279 0)
(0.069549943 -0.0014049051 0)
(0.070158779 -0.0011166168 0)
(0.070653332 -0.00085090132 0)
(0.071040468 -0.000606958 0)
(0.071326985 -0.00038387999 0)
(0.071519576 -0.0001806812 0)
(0.071624792 3.6856122e-06 0)
(0.071649011 0.00017027032 0)
(0.071598391 0.00032012565 0)
(0.0714789 0.00045431972 0)
(0.071296272 0.00057392478 0)
(0.071055989 0.00067999622 0)
(0.070763268 0.00077355926 0)
(0.070423061 0.00085560187 0)
(0.070040042 0.00092706967 0)
(0.069618613 0.00098886207 0)
(0.0691629 0.0010418298 0)
(0.068676761 0.0010867738 0)
(0.068163787 0.0011244444 0)
(0.067627313 0.001155542 0)
(0.067070425 0.0011807174 0)
(0.066495972 0.0012005739 0)
(0.065906572 0.001215668 0)
(0.065304627 0.0012265119 0)
(0.064692333 0.0012335757 0)
(0.064071693 0.0012372893 0)
(0.063444527 0.0012380449 0)
(0.062812483 0.0012361993 0)
(0.062177052 0.0012320764 0)
(0.061539576 0.0012259693 0)
(0.060901259 0.0012181427 0)
(0.060263179 0.001208835 0)
(0.059626298 0.0011982604 0)
(0.058991468 0.0011866111 0)
(0.058359445 0.0011740585 0)
(0.057730892 0.001160756 0)
(0.057106391 0.0011468394 0)
(0.056486451 0.0011324297 0)
(0.05587151 0.0011176335 0)
(0.055261947 0.0011025449 0)
(0.054658083 0.0010872465 0)
(0.05406019 0.0010718107 0)
(0.053468495 0.0010563004 0)
(0.052883186 0.0010407702 0)
(0.052304413 0.0010252674 0)
(0.051732294 0.0010098322 0)
(0.051166919 0.00099449918 0)
(0.050608353 0.00097929727 0)
(0.050056638 0.00096425079 0)
(0.049511798 0.00094937979 0)
(0.048973838 0.00093470057 0)
(0.04844275 0.00092022612 0)
(0.047918511 0.0009059665 0)
(0.047401089 0.00089192921 0)
(0.046890442 0.0008781195 0)
(0.04638652 0.00086454066 0)
(0.045889266 0.00085119429 0)
(0.045398619 0.0008380805 0)
(0.044914511 0.00082519814 0)
(0.044436874 0.000812545 0)
(0.043965635 0.00080011793 0)
(0.043500719 0.00078791303 0)
(0.043042052 0.00077592577 0)
(0.042589558 0.00076415109 0)
(0.04214316 0.00075258353 0)
(0.041702781 0.0007412173 0)
(0.041268348 0.00073004636 0)
(0.040839784 0.00071906454 0)
(0.040417017 0.00070826553 0)
(0.039999975 0.00069764299 0)
(0.039588588 0.00068719057 0)
(0.039182786 0.00067690197 0)
(0.038782502 0.00066677097 0)
(0.038387672 0.00065679147 0)
(0.037998233 0.00064695749 0)
(0.037614122 0.00063726324 0)
(0.037235281 0.00062770307 0)
(0.036861653 0.00061827157 0)
(0.036493182 0.00060896353 0)
(0.036129815 0.00059977397 0)
(0.0357715 0.00059069813 0)
(0.035418187 0.00058173151 0)
(0.035069828 0.00057286983 0)
(0.034726377 0.00056410907 0)
(0.034387788 0.00055544547 0)
(0.034054019 0.0005468755 0)
(0.033725028 0.00053839591 0)
(0.033400773 0.00053000367 0)
(0.033081215 0.00052169601 0)
(0.032766316 0.00051347039 0)
(0.032456039 0.00050532453 0)
(0.032150346 0.00049725637 0)
(0.031849202 0.0004892641 0)
(0.031552571 0.00048134611 0)
(0.031260421 0.00047350102 0)
(0.030972715 0.00046572766 0)
(0.030689422 0.00045802507 0)
(0.030410506 0.00045039249 0)
(0.030135936 0.00044282935 0)
(0.029865678 0.00043533528 0)
(0.0295997 0.00042791007 0)
(0.029337967 0.00042055371 0)
(0.029080446 0.00041326634 0)
(0.028827105 0.00040604825 0)
(0.028577909 0.0003988999 0)
(0.028332824 0.00039182191 0)
(0.028091814 0.00038481502 0)
(0.027854845 0.00037788011 0)
(0.027621881 0.00037101818 0)
(0.027392884 0.00036423036 0)
(0.027167817 0.00035751791 0)
(0.026946642 0.00035088218 0)
(0.02672932 0.00034432465 0)
(0.02651581 0.00033784687 0)
(0.026306071 0.00033145052 0)
(0.026100061 0.00032513735 0)
(0.025897736 0.00031890921 0)
(0.025699052 0.00031276802 0)
(0.025503963 0.00030671579 0)
(0.025312422 0.00030075461 0)
(0.025124381 0.00029488665 0)
(0.02493979 0.00028911412 0)
(0.024758599 0.00028343935 0)
(0.024580754 0.00027786471 0)
(0.024406203 0.00027239263 0)
(0.024234889 0.00026702566 0)
(0.024066757 0.00026176638 0)
(0.023901747 0.00025661746 0)
(0.0237398 0.00025158165 0)
(0.023580854 0.00024666178 0)
(0.023424845 0.0002418608 0)
(0.02327171 0.00023718176 0)
(0.023121381 0.00023262781 0)
(0.022973789 0.00022820229 0)
(0.022828864 0.00022390869 0)
(0.022686533 0.00021975071 0)
(0.022546722 0.00021573232 0)
(0.022409353 0.00021185779 0)
(0.022274348 0.00020813182 0)
(0.022141623 0.00020455958 0)
(0.022011094 0.00020114693 0)
(0.021882673 0.00019790056 0)
(0.021756269 0.00019482827 0)
(0.021631784 0.00019193933 0)
(0.021509119 0.00018924497 0)
(0.021388166 0.00018675912 0)
(0.021268812 0.0001844994 0)
(0.021150935 0.00018248866 0)
(0.0210344 0.00018075723 0)
(0.02091906 0.00017934643 0)
(0.020804748 0.00017831412 0)
(0.020691276 0.00017774361 0)
(0.020578422 0.00017775843 0)
(0.020465928 0.00017854667 0)
(0.020353489 0.00018040137 0)
(0.020240754 0.00018378388 0)
(0.02012732 0.00018942424 0)
(0.020012956 0.00019841084 0)
(0.019897513 0.00021229946 0)
(0.019781061 0.00023203343 0)
(0.019631169 0.00026187291 0)
(-0.0015323928 0.011529342 0)
(-0.0067569598 0.016701665 0)
(-0.0091842054 0.015260649 0)
(-0.0096398302 0.012146909 0)
(-0.0086831075 0.0087964991 0)
(-0.0067152581 0.0055795754 0)
(-0.0039899781 0.0026054353 0)
(-0.00071482947 -0.00011694955 0)
(0.0029570094 -0.002599817 0)
(0.0068949046 -0.0048372862 0)
(0.01100282 -0.0068168333 0)
(0.015205136 -0.0085286453 0)
(0.019440677 -0.0099681337 0)
(0.023660879 -0.01113652 0)
(0.027827416 -0.012040589 0)
(0.031910358 -0.01269309 0)
(0.035886176 -0.013112026 0)
(0.039736757 -0.013319085 0)
(0.043448689 -0.013338288 0)
(0.047012351 -0.013194939 0)
(0.050421027 -0.012914277 0)
(0.053670381 -0.012520493 0)
(0.056757983 -0.012036179 0)
(0.059682817 -0.011481853 0)
(0.062444956 -0.010875709 0)
(0.06504532 -0.010233581 0)
(0.06748549 -0.0095690095 0)
(0.069767559 -0.0088933907 0)
(0.071894031 -0.008216181 0)
(0.073867755 -0.007545116 0)
(0.07569188 -0.0068864327 0)
(0.077369818 -0.0062450812 0)
(0.078905226 -0.005624917 0)
(0.080301986 -0.005028872 0)
(0.081564188 -0.0044591036 0)
(0.082696117 -0.0039171215 0)
(0.083702228 -0.003403895 0)
(0.084587131 -0.0029199445 0)
(0.085355567 -0.0024654172 0)
(0.086012385 -0.0020401512 0)
(0.086562516 -0.0016437301 0)
(0.087010953 -0.0012755286 0)
(0.087362717 -0.00093475144 0)
(0.087622845 -0.00062046747 0)
(0.087796355 -0.00033163805 0)
(0.087888218 -6.7139297e-05 0)
(0.087903392 0.0001741976 0)
(0.087846696 0.0003935529 0)
(0.087722853 0.00059213968 0)
(0.087536476 0.00077118906 0)
(0.087292053 0.00093192983 0)
(0.086993929 0.0010755745 0)
(0.086646305 0.0012033099 0)
(0.08625322 0.0013162883 0)
(0.085818548 0.001415622 0)
(0.085345987 0.0015023774 0)
(0.084839057 0.0015775721 0)
(0.084301099 0.0016421723 0)
(0.083735269 0.0016970913 0)
(0.083144544 0.0017431889 0)
(0.08253172 0.0017812713 0)
(0.081899417 0.0018120921 0)
(0.081250081 0.0018363528 0)
(0.080585993 0.0018547048 0)
(0.079909267 0.0018677511 0)
(0.079221865 0.0018760479 0)
(0.078525596 0.0018801073 0)
(0.077822128 0.0018803993 0)
(0.077112993 0.0018773542 0)
(0.076399593 0.0018713649 0)
(0.07568321 0.0018627895 0)
(0.074965011 0.0018519534 0)
(0.074246056 0.0018391516 0)
(0.073527305 0.0018246509 0)
(0.072809624 0.0018086922 0)
(0.072093792 0.0017914924 0)
(0.07138051 0.001773246 0)
(0.070670401 0.0017541274 0)
(0.069964023 0.0017342925 0)
(0.069261867 0.00171388 0)
(0.068564368 0.0016930132 0)
(0.067871909 0.0016718012 0)
(0.067184822 0.0016503404 0)
(0.066503397 0.0016287153 0)
(0.065827883 0.0016070002 0)
(0.065158491 0.0015852596 0)
(0.064495402 0.0015635495 0)
(0.063838764 0.0015419182 0)
(0.063188702 0.0015204071 0)
(0.062545315 0.001499051 0)
(0.061908679 0.0014778797 0)
(0.061278854 0.0014569176 0)
(0.060655881 0.0014361848 0)
(0.060039787 0.0014156975 0)
(0.059430586 0.0013954683 0)
(0.05882828 0.0013755068 0)
(0.058232861 0.0013558199 0)
(0.057644313 0.001336412 0)
(0.05706261 0.0013172856 0)
(0.056487724 0.0012984412 0)
(0.055919618 0.001279878 0)
(0.055358252 0.0012615936 0)
(0.054803583 0.0012435846 0)
(0.054255563 0.0012258466 0)
(0.053714145 0.0012083744 0)
(0.053179276 0.0011911622 0)
(0.052650904 0.0011742037 0)
(0.052128979 0.001157492 0)
(0.051613445 0.0011410201 0)
(0.05110425 0.0011247807 0)
(0.050601341 0.0011087663 0)
(0.050104665 0.0010929695 0)
(0.049614171 0.0010773827 0)
(0.049129806 0.0010619985 0)
(0.048651522 0.0010468096 0)
(0.048179268 0.0010318086 0)
(0.047712997 0.0010169887 0)
(0.047252662 0.0010023429 0)
(0.046798217 0.00098786478 0)
(0.046349618 0.00097354791 0)
(0.045906822 0.00095938628 0)
(0.045469786 0.00094537415 0)
(0.045038471 0.00093150608 0)
(0.044612836 0.00091777695 0)
(0.044192843 0.00090418197 0)
(0.043778455 0.00089071668 0)
(0.043369634 0.00087737694 0)
(0.042966346 0.00086415895 0)
(0.042568555 0.00085105927 0)
(0.042176228 0.00083807476 0)
(0.041789331 0.00082520263 0)
(0.041407831 0.00081244041 0)
(0.041031695 0.00079978597 0)
(0.040660893 0.00078723746 0)
(0.040295391 0.00077479337 0)
(0.039935157 0.00076245249 0)
(0.039580162 0.00075021389 0)
(0.039230372 0.00073807695 0)
(0.038885756 0.00072604132 0)
(0.038546282 0.00071410693 0)
(0.038211917 0.00070227396 0)
(0.037882629 0.00069054284 0)
(0.037558385 0.00067891427 0)
(0.03723915 0.00066738915 0)
(0.03692489 0.00065596864 0)
(0.03661557 0.00064465411 0)
(0.036311153 0.00063344711 0)
(0.036011602 0.00062234943 0)
(0.03571688 0.00061136301 0)
(0.035426947 0.00060049002 0)
(0.035141762 0.00058973276 0)
(0.034861284 0.00057909373 0)
(0.034585471 0.00056857557 0)
(0.034314278 0.00055818107 0)
(0.034047659 0.00054791318 0)
(0.033785567 0.00053777498 0)
(0.033527954 0.00052776968 0)
(0.03327477 0.00051790061 0)
(0.033025963 0.00050817124 0)
(0.032781479 0.00049858514 0)
(0.032541264 0.00048914601 0)
(0.03230526 0.00047985765 0)
(0.032073408 0.00047072398 0)
(0.03184565 0.00046174901 0)
(0.03162192 0.00045293689 0)
(0.031402157 0.00044429186 0)
(0.031186292 0.00043581828 0)
(0.030974259 0.00042752065 0)
(0.030765986 0.00041940356 0)