/*--------------------------------*- C++ -*----------------------------------*\
| =========                 |                                                 |
| \\      /  F ield         | OpenFOAM: The Open Source CFD Toolbox           |
|  \\    /   O peration     | Version:  2406                                  |
|   \\  /    A nd           | Website:  www.openfoam.com                      |
|    \\/     M anipulation  |                                                 |
\*---------------------------------------------------------------------------*/
FoamFile
{
    version     2.0;
    format      ascii;
    arch        "LSB;label=32;scalar=64";
    class       volScalarField;
    location    "2000";
    object      p;
}
// * * * * * * * * * * * * * * * * * * * * * * * * * * * * * * * * * * * * * //

dimensions      [0 2 -2 0 0 0 0];

internalField   nonuniform List<scalar> 
8600
(
-0.0035635589
0.0026450783
0.0033421614
0.0023543987
0.0014820671
0.00082763072
0.00033766081
-1.1347277e-05
-0.00025011036
-0.0004098316
-0.00051332517
-0.00057544429
-0.00060613961
-0.00061257528
-0.00060021514
-0.00057338917
-0.00053560394
-0.00048971735
-0.00043805322
-0.00038248995
-0.00032453403
-0.0002653776
-0.00020593933
-0.00014688745
-8.86468e-05
-3.1391948e-05
2.4968881e-05
8.0813689e-05
0.00013682275
0.00019398272
0.00025356949
0.0003171025
0.00038626547
0.0004627944
0.00054833833
0.00064430387
0.00075170375
0.00087105594
0.0010023607
0.001145053
0.0012978772
0.0014587462
0.0016247395
0.0017922725
0.0019573655
0.0021159612
0.0022642425
0.002398907
0.0025173624
0.0026178267
0.0026993354
0.0027616722
0.0028052501
0.0028309686
0.002840067
0.0028339862
0.0028142437
0.0027823342
0.0027396644
0.0026875262
0.0026271217
0.0025595987
0.0024860928
0.0024077771
0.0023259083
0.0022418652
0.002157169
0.0020734836
0.0019925905
0.0019163407
0.0018465815
0.0017850656
0.001733346
0.0016926674
0.0016638614
0.0016472542
0.0016426026
0.0016490849
0.0016653579
0.0016896665
0.0017199666
0.0017540823
0.0017898694
0.0018253573
0.0018588549
0.001889014
0.0019148521
0.0019357413
0.0019513715
0.0019616992
0.0019668877
0.0019672482
0.0019631842
0.0019551446
0.0019435847
0.0019289394
0.0019116041
0.0018919239
0.0018701865
0.0018466222
0.0018214101
0.0017946893
0.001766572
0.0017371571
0.001706544
0.001674845
0.0016421961
0.0016087642
0.001574752
0.0015403983
0.0015059753
0.0014717826
0.0014381366
0.0014053598
0.0013737662
0.0013436476
0.0013152595
0.0012888087
0.0012644428
0.0012422434
0.0012222221
0.0012043209
0.0011884156
0.0011743241
0.0011618161
0.0011506262
0.0011404673
0.0011310441
0.0011220658
0.0011132582
0.0011043728
0.0010951939
0.0010855427
0.0010752796
0.0010643043
0.0010525535
0.0010399978
0.0010266381
0.0010125005
0.00099763146
0.00098209313
0.00096595819
0.00094930522
0.00093221492
0.00091476681
0.00089703685
0.0008790953
0.00086100553
0.00084282305
0.00082459543
0.00080636215
0.00078815535
0.00077000012
0.0007519158
0.0007339164
0.000716012
0.00069820911
0.00068051188
0.00066292229
0.000645441
0.00062806737
0.00061079988
0.00059363605
0.00057657262
0.0005596054
0.0005427294
0.00052593861
0.00050922624
0.00049258462
0.00047600559
0.00045948053
0.0004430009
0.0004265583
0.00041014523
0.00039375512
0.0003773831
0.00036102604
0.00034468307
0.00032835565
0.00031204781
0.00029576604
0.00027951935
0.00026331888
0.00024717773
0.00023111043
0.00021513256
0.0001992601
0.00018350894
0.00016789412
0.00015242931
0.00013712614
0.00012199364
0.00010703771
9.2260616e-05
7.7660556e-05
6.3230827e-05
4.896107e-05
3.4823944e-05
2.0841815e-05
6.7786427e-06
-0.0044670583
0.0024924724
0.0033517452
0.0023541083
0.0015057261
0.00087684685
0.00039311511
4.2103524e-05
-0.00020005679
-0.00036350386
-0.00047068299
-0.00053608381
-0.0005695473
-0.00057828783
-0.00056785505
-0.00054266482
-0.00050630503
-0.0004617074
-0.00041125823
-0.0003568846
-0.00030012625
-0.00024219294
-0.00018400637
-0.00012622618
-6.926075e-05
-1.3265079e-05
4.1870588e-05
9.6536288e-05
0.00015141519
0.00020748573
0.00026600458
0.00032846292
0.00039651128
0.00047185287
0.00055610951
0.00065066986
0.0007565412
0.00087424777
0.0010038049
0.0011446766
0.0012956552
0.0014547217
0.0016190362
0.0017850954
0.0019489915
0.0021067197
0.002254492
0.002389009
0.0025076575
0.0026086159
0.0026908669
0.0027541353
0.0027987744
0.002825628
0.0028358869
0.0028309532
0.0028123171
0.0027814571
0.0027397735
0.0026885598
0.0026290221
0.0025623124
0.0024895683
0.0024119604
0.002330738
0.0022472658
0.0021630461
0.0020797193
0.0019990424
0.0019228422
0.0018529462
0.0017910945
0.0017388377
0.0016974303
0.0016677273
0.0016500924
0.0016443332
0.0016496861
0.0016648666
0.0016881735
0.0017176083
0.0017510276
0.0017863043
0.0018214702
0.0018548239
0.0018849972
0.0019109814
0.0019321195
0.0019480724
0.0019587694
0.0019643503
0.001965107
0.0019614283
0.0019537526
0.0019425293
0.0019281902
0.0019111303
0.0018916963
0.0018701793
0.0018468137
0.0018217829
0.0017952302
0.0017672712
0.001738007
0.0017075383
0.0016759774
0.0016434588
0.0016101471
0.0015762418
0.0015419779
0.0015076236
0.0014734746
0.001439844
0.0014070516
0.0013754103
0.0013452117
0.0013167127
0.001290123
0.0012655944
0.0012432138
0.0012229989
0.0012048985
0.0011887953
0.0011745138
0.0011618295
0.0011504822
0.0011401885
0.0011306555
0.001121594
0.0011127298
0.0011038132
0.0010946265
0.0010849884
0.0010747563
0.0010638262
0.0010521316
0.0010396399
0.0010263488
0.0010122815
0.00099748224
0.00098201107
0.00096593909
0.00094934376
0.00093230497
0.00091490187
0.00089721025
0.00087930051
0.00086123627
0.00084307353
0.00082486031
0.00080663674
0.00078843543
0.00077028215
0.00075219664
0.00073419349
0.0007162831
0.00069847244
0.00068076589
0.00066316578
0.00064567295
0.00062828703
0.00061100668
0.00059382967
0.00057675293
0.00055977255
0.00054288372
0.00052608071
0.00050935693
0.000492705
0.0004761169
0.00045958425
0.00044309859
0.00042665168
0.00041023599
0.000393845
0.00037747369
0.00036111884
0.00034477935
0.00032845647
0.00031215391
0.0002958779
0.00027963707
0.00026344227
0.00024730623
0.0002312432
0.00021526848
0.00019939784
0.00018364695
0.00016803074
0.00015256281
0.00013725477
0.00012211572
0.00010715167
9.2365047e-05
7.775429e-05
6.3313012e-05
4.9030797e-05
3.4883544e-05
2.0893573e-05
6.8197739e-06
0.00076010091
0.0030760471
0.0031792828
0.0022293083
0.001462979
0.0009264012
0.0004968582
0.00016083034
-8.4548084e-05
-0.0002575377
-0.00037566727
-0.00045105644
-0.00049272502
-0.00050797595
-0.00050272889
-0.00048175929
-0.00044894392
-0.00040743755
-0.00035979449
-0.00030806441
-0.00025387154
-0.0001984777
-0.00014282961
-8.759099e-05
-3.3160469e-05
2.0323001e-05
7.2984251e-05
0.00012522127
0.0001777138
0.00023142381
0.00028757996
0.000347638
0.00041321162
0.00048597187
0.00056751926
0.00065923594
0.00076213903
0.00087677852
0.0010032127
0.0011409789
0.0012889632
0.0014452511
0.0016071131
0.0017711498
0.001933536
0.0020903197
0.0022377296
0.0023724477
0.0024918115
0.0025939262
0.0026776872
0.002742726
0.0027893045
0.0028181829
0.0028304808
0.0028275447
0.002810826
0.0027817802
0.002741796
0.0026921642
0.0026340888
0.0025687184
0.002497183
0.0024206391
0.0023403149
0.0022575484
0.0021738105
0.0020907096
0.0020099733
0.0019334066
0.0018628268
0.0017999788
0.0017464358
0.0017034938
0.0016720674
0.0016525967
0.0016449763
0.0016485317
0.0016620597
0.0016839271
0.0017121897
0.0017447351
0.0017794451
0.0018143396
0.0018476892
0.0018780862
0.0019044765
0.0019261561
0.001942741
0.0019541204
0.0019604007
0.0019618473
0.00195883
0.0019517747
0.0019411239
0.0019273072
0.0019107209
0.0018917155
0.0018705877
0.0018475781
0.0018228759
0.0017966291
0.0017689562
0.0017399602
0.0017097411
0.0016784089
0.0016460945
0.0016129575
0.0015791914
0.0015450255
0.0015107227
0.0014765737
0.001442889
0.0014099871
0.0013781819
0.0013477684
0.0013190091
0.0012921212
0.0012672659
0.0012445407
0.0012239746
0.0012055275
0.0011890934
0.0011745061
0.0011615495
0.0011499694
0.0011394868
0.0011298109
0.0011206525
0.0011117355
0.0011028071
0.0010936448
0.0010840622
0.0010739108
0.0010630808
0.0010514999
0.0010391302
0.0010259645
0.0010120219
0.00099734305
0.00098198519
0.00096601736
0.00094951562
0.00093255909
0.0009152266
0.00089759405
0.00087973229
0.0008617056
0.00084357083
0.00082537694
0.000807165
0.00078896856
0.00077081428
0.00075272271
0.00073470919
0.00071678476
0.00069895699
0.00068123076
0.00066360892
0.00064609273
0.00062868228
0.00061137666
0.0005941741
0.00057707199
0.00056006688
0.00054315441
0.00052632933
0.00050958543
0.00049291572
0.00047631252
0.0004597677
0.00044327291
0.00042682
0.00041040136
0.00039401034
0.00037764166
0.00036129173
0.00034495901
0.00032864427
0.00031235066
0.00029608384
0.00027985186
0.000263665
0.00024753547
0.00023147708
0.00021550472
0.00019963388
0.00018388001
0.00016825798
0.00015278137
0.00013746197
0.00012230909
0.00010732912
9.2524947e-05
7.7895591e-05
6.3435485e-05
4.9135055e-05
3.4978403e-05
2.0973266e-05
6.8852677e-06
0.0010175277
0.0012339718
0.0014417943
0.0012497406
0.00091333942
0.0005965404
0.00030686941
5.5697402e-05
-0.00014088256
-0.00028371938
-0.00038190567
-0.00044384319
-0.00047626895
-0.00048497645
-0.00047492373
-0.00045025418
-0.00041444057
-0.00037041866
-0.00032066383
-0.00026723825
-0.00021182707
-0.000155767
-0.00010006797
-4.5429286e-05
7.7493174e-06
5.9361459e-05
0.00010959231
0.00015891951
0.0002081133
0.00025823017
0.00031059267
0.00036674757
0.00042839777
0.00049730081
0.00057513678
0.0006633572
0.0007630337
0.00087474919
0.00099860414
0.0011342325
0.0012806329
0.0014359479
0.0015974344
0.0017616308
0.0019246202
0.0020823445
0.0022309265
0.0023669557
0.0024876977
0.0025912095
0.0026763576
0.0027427578
0.0027906624
0.0028208219
0.002834346
0.0028325744
0.002816956
0.0027889421
0.0027499032
0.0027010998
0.002643706
0.0025788407
0.0025076047
0.0024311273
0.0023506137
0.002267385
0.0021829049
0.0020987866
0.0020167758
0.0019387108
0.0018664573
0.0018018222
0.0017464518
0.0017017223
0.0016686313
0.0016476996
0.0016388879
0.0016415608
0.0016545279
0.0016761508
0.0017044596
0.0017372946
0.00177248
0.0018079772
0.0018420039
0.0018731089
0.0019002054
0.0019225667
0.0019397954
0.0019517743
0.0019586088
0.0019605669
0.0019580231
0.0019514089
0.001941172
0.0019277465
0.0019115327
0.0018928847
0.0018721021
0.0018494255
0.001825041
0.0017990922
0.0017716926
0.0017429384
0.0017129229
0.001681749
0.0016495408
0.0016164523
0.0015826728
0.0015484292
0.0015139844
0.0014796316
0.0014456863
0.0014124746
0.00138032
0.0013495288
0.001320376
0.0012930919
0.0012678505
0.0012447612
0.0012238636
0.0012051264
0.0011884499
0.0011736722
0.0011605782
0.0011489129
0.0011383944
0.001128727
0.0011196157
0.0011107774
0.0011019524
0.0010929112
0.0010834609
0.0010734471
0.001062755
0.0010513082
0.0010390653
0.0010260167
0.0010121798
0.00099759423
0.00098231701
0.00096641757
0.00094997264
0.00093306214
0.00091576589
0.00089816088
0.00088031907
0.00086230585
0.00084417901
0.00082598835
0.00080777561
0.00078957487
0.00077141316
0.00075331134
0.00073528493
0.00071734514
0.00069949967
0.00068175359
0.00066410993
0.00064657025
0.00062913495
0.00061180356
0.00059457476
0.00057744646
0.00056041573
0.00054347875
0.00052663073
0.00050986595
0.00049317774
0.00047655871
0.00046000082
0.00044349579
0.00042703535
0.00041061168
0.00039421779
0.00037784799
0.00036149822
0.00034516643
0.00032885282
0.00031256003
0.00029629322
0.00028005999
0.00026387025
0.00024773596
0.00023167074
0.00021568944
0.00019980761
0.00018404088
0.00016840438
0.00015291213
0.00013757638
0.00012240702
0.0001074111
9.2592218e-05
7.7950225e-05
6.3480416e-05
4.9174627e-05
3.501711e-05
2.1023526e-05
6.8796231e-06
0.00062644411
0.00072382109
0.00090243849
0.0008371209
0.00059125151
0.00033394251
0.00011026118
-8.1552234e-05
-0.00023675437
-0.00035290891
-0.00043401519
-0.00048543859
-0.00051161908
-0.00051641879
-0.00050340327
-0.00047580675
-0.00043654773
-0.00038829761
-0.00033351689
-0.00027445075
-0.0002131014
-0.00015118831
-9.0104145e-05
-3.0876099e-05
2.5860283e-05
7.9871871e-05
0.00013132472
0.00018076982
0.00022912052
0.00027762144
0.00032780541
0.0003814322
0.00044040236
0.00050664754
0.00058198993
0.00066797915
0.00076573831
0.00087585257
0.00099841036
0.0011331246
0.0012791139
0.0014345342
0.0015965513
0.001761572
0.0019255421
0.0020842812
0.0022338198
0.0023706941
0.0024921543
0.0025962725
0.0026819494
0.0027488372
0.0027972151
0.0028278452
0.002841837
0.0028405311
0.0028253818
0.0027978228
0.0027591708
0.0027106281
0.0026533175
0.0025883103
0.0025166676
0.0024394907
0.002357972
0.0022734386
0.0021873801
0.0021014556
0.0020174756
0.0019373578
0.0018630574
0.0017964746
0.0017393461
0.00169313
0.0016588933
0.0016372093
0.0016280645
0.0016308089
0.0016442111
0.0016665778
0.0016958577
0.0017297987
0.0017661356
0.0018027549
0.001837819
0.0018698428
0.0018977244
0.0019207385
0.0019385001
0.0019509116
0.0019581013
0.0019603606
0.0019580858
0.0019517263
0.0019417434
0.0019285796
0.0019126401
0.001894282
0.0018738038
0.0018514396
0.0018273658
0.0018017143
0.0017745859
0.0017460644
0.0017162306
0.0016851768
0.0016530183
0.001619903
0.0015860174
0.0015515892
0.0015168856
0.0014822082
0.0014478836
0.0014142518
0.0013816519
0.0013504071
0.0013208092
0.0012931041
0.00126748
0.0012440581
0.0012228867
0.00120394
0.0011871207
0.0011722658
0.0011591563
0.0011475306
0.001137099
0.0011275564
0.0011185976
0.0011099299
0.0011012841
0.0010924231
0.001083147
0.0010732963
0.0010627525
0.0010514366
0.0010393062
0.0010263512
0.0010125897
0.00099806266
0.00098282909
0.00096696077
0.00095053671
0.00093363889
0.0009163491
0.00089874613
0.00088090342
0.00086288755
0.00084475712
0.00082656245
0.00080834541
0.00079014005
0.00077197312
0.00075386508
0.000735831
0.00071788168
0.00070002444
0.0006822641
0.00066460358
0.00064704451
0.00062958751
0.00061223246
0.00059497855
0.00057782428
0.00056076735
0.00054380459
0.00052693181
0.00051014383
0.00049343443
0.00047679651
0.00046022219
0.0004437032
0.00042723113
0.00041079792
0.00039439618
0.00037801979
0.00036166417
0.00034532675
0.0003290072
0.00031270771
0.00029643302
0.00028019044
0.00026398967
0.00024784261
0.00023176294
0.00021576571
0.00019986676
0.00018408218
0.00016842763
0.00015291776
0.00013756553
0.00012238161
0.00010737385
9.2546732e-05
7.7901041e-05
6.3432962e-05
4.9135999e-05
3.4991877e-05
2.1032216e-05
6.8494685e-06
0.00024408813
0.00028694753
0.00034011595
0.00028756087
0.00014111419
-1.9111328e-05
-0.00016226428
-0.00028905588
-0.00039671254
-0.00048082791
-0.0005414309
-0.00058088702
-0.00060136207
-0.00060458602
-0.00059215452
-0.00056559968
-0.00052645093
-0.00047636475
-0.00041722455
-0.00035115429
-0.0002804484
-0.00020743555
-0.00013430267
-6.2913463e-05
5.3440693e-06
6.9658175e-05
0.00012983435
0.00018628262
0.00023996406
0.00029230994
0.0003451229
0.00040046365
0.00046052196
0.00052746945
0.00060330526
0.00068968753
0.00078776589
0.00089809175
0.0010206614
0.0011551619
0.0013008333
0.0014558526
0.0016172972
0.0017814822
0.0019442998
0.0021015679
0.0022493706
0.002384343
0.0025038607
0.0026061312
0.0026901754
0.0027557316
0.0028031164
0.0028330773
0.0028466791
0.0028452233
0.0028301277
0.0028027334
0.0027642376
0.0027157463
0.0026582992
0.0025929022
0.0025205736
0.0024423975
0.0023595765
0.0022734752
0.0021856462
0.0020978322
0.0020119417
0.0019299966
0.0018540527
0.0017860987
0.0017279397
0.0016810771
0.0016465964
0.0016250685
0.0016164514
0.0016200365
0.001634522
0.001658136
0.0016887306
0.0017239607
0.0017614845
0.0017991354
0.0018350478
0.0018677314
0.0018960981
0.0019194485
0.0019374312
0.0019499851
0.0019572738
0.0019596202
0.0019574464
0.0019512209
0.0019414168
0.0019284811
0.0019128183
0.0018947817
0.0018746617
0.001852678
0.0018289902
0.0018037124
0.0017769274
0.001748702
0.0017191021
0.0016882072
0.0016561238
0.0016229942
0.0015890042
0.0015543848
0.0015194111
0.0014843961
0.0014496813
0.0014156237
0.0013825808
0.0013508942
0.0013208734
0.0012927802
0.0012668158
0.0012431115
0.0012217221
0.0012026248
0.0011857219
0.0011708467
0.0011577737
0.0011462336
0.0011359269
0.0011265383
0.001117752
0.0011092654
0.0011008007
0.0010921131
0.0010829974
0.0010732901
0.0010628701
0.0010516576
0.0010396102
0.0010267192
0.0010130042
0.00099850892
0.00098329525
0.00096743803
0.00095101894
0.00093412233
0.00091683213
0.00089922882
0.00088138714
0.00086337443
0.00084524966
0.00082706295
0.00080885577
0.00079066132
0.00077250544
0.0007544075
0.00073638154
0.00071843734
0.00070058144
0.00068281804
0.00066514972
0.00064757798
0.00063010362
0.00061272692
0.00059544767
0.0005782651
0.00056117776
0.00054418333
0.00052727851
0.00051045888
0.00049371892
0.00047705202
0.00046045072
0.00044390692
0.00042741227
0.00041095856
0.00039453821
0.00037814473
0.00036177315
0.00034542046
0.00032908594
0.00031277138
0.00029648122
0.00028022255
0.00026400497
0.0002478404
0.00023174267
0.00021572709
0.0001998099
0.00018400768
0.00016833669
0.00015281222
0.00013744798
0.00012225541
0.00010724316
9.2416552e-05
7.7777257e-05
6.3322216e-05
4.9046652e-05
3.4929333e-05
2.1018531e-05
6.8303695e-06
-0.000184563
-0.00017325191
-0.00015802833
-0.00017917892
-0.00024888504
-0.00033847196
-0.00042547083
-0.00050459111
-0.0005735229
-0.00062945279
-0.00067173476
-0.00070132132
-0.00071897497
-0.00072479797
-0.00071847938
-0.00069951356
-0.00066741869
-0.00062203675
-0.00056382351
-0.00049402574
-0.00041470001
-0.00032856419
-0.00023870699
-0.00014821607
-5.9805114e-05
2.448826e-05
0.00010348879
0.00017694402
0.00024547501
0.00031044804
0.00037379864
0.00043783284
0.00050502179
0.00057779294
0.00065833623
0.00074842345
0.00084924657
0.000961312
0.0010845062
0.0012183638
0.0013621681
0.0015142433
0.0016717095
0.0018309445
0.0019879735
0.0021388262
0.002279866
0.0024080428
0.0025210534
0.0026173999
0.0026963353
0.0027577403
0.002801967
0.0028297005
0.0028418913
0.0028397294
0.0028245079
0.0027973508
0.0027592562
0.0027111589
0.0026539614
0.0025885744
0.002515965
0.0024372095
0.0023535433
0.0022663975
0.0021774174
0.0020884545
0.0020015295
0.0019187678
0.0018423084
0.0017741934
0.0017162462
0.0016699499
0.00163634
0.0016159158
0.0016085496
0.001613446
0.0016292328
0.0016540628
0.0016857153
0.0017217912
0.0017599204
0.0017979339
0.001833986
0.0018666235
0.0018948051
0.0019178827
0.0019355557
0.0019478086
0.001954844
0.0019570148
0.0019547639
0.0019485716
0.0019389136
0.0019262316
0.0019109183
0.0018933122
0.0018736838
0.0018522303
0.0018290867
0.0018043428
0.0017780585
0.0017502802
0.0017210566
0.001690454
0.0016585696
0.0016255417
0.0015915563
0.0015568496
0.0015217059
0.001486451
0.0014514419
0.001417053
0.0013836595
0.0013516204
0.0013212609
0.0012928564
0.0012666192
0.0012426877
0.0012211214
0.001201899
0.0011849213
0.0011700175
0.0011569565
0.0011454626
0.0011352291
0.0011259327
0.0011172499
0.0011088709
0.0011005119
0.0010919233
0.0010828964
0.0010732655
0.0010629088
0.0010517463
0.0010397368
0.0010268729
0.0010131767
0.000998694
0.00098348965
0.00096764087
0.00095123118
0.00093434666
0.00091707255
0.0008994902
0.00088167475
0.00086369337
0.00084560443
0.00082745705
0.00080929133
0.00079113891
0.00077302395
0.00075496409
0.0007369718
0.00071905542
0.00070122032
0.00068346985
0.00066580608
0.00064823036
0.0006307437
0.0006133469
0.00059604053
0.00057882482
0.00056169946
0.00054466335
0.00052771442
0.0005108494
0.00049406386
0.0004773521
0.00046070742
0.00044412227
0.00042758869
0.00041109867
0.00039464468
0.00037822012
0.00036181986
0.00034544062
0.00032908142
0.00031274376
0.00029643184
0.00028015254
0.00026391539
0.00024773226
0.00023161706
0.00021558528
0.00019965343
0.00018383843
0.00016815699
0.00015262491
0.00013725643
0.00012206362
0.00010705579
9.2238909e-05
7.7615444e-05
6.3183009e-05
4.8938366e-05
3.4858668e-05
2.1003418e-05
6.8543665e-06
-0.00062985519
-0.00062321943
-0.0006086051
-0.00060334875
-0.00062261622
-0.00065717753
-0.00069372157
-0.00072815427
-0.0007598538
-0.00078783437
-0.00081178026
-0.00083200258
-0.00084827488
-0.00085936896
-0.00086323039
-0.00085725987
-0.00083866103
-0.00080491751
-0.00075431722
-0.00068639127
-0.00060215918
-0.00050410915
-0.00039589886
-0.00028183737
-0.00016626781
-5.2986642e-05
5.5192593e-05
0.00015667619
0.00025112677
0.00033933686
0.00042299399
0.00050439039
0.00058612028
0.00067078786
0.00076075171
0.00085791491
0.00096355243
0.0010782227
0.0012017678
0.0013335625
0.0014728065
0.0016180607
0.0017667414
0.00191551
0.0020607465
0.0021989179
0.0023268936
0.0024421589
0.0025429397
0.0026282096
0.0026975839
0.0027511642
0.0027893587
0.0028127695
0.002822197
0.0028186469
0.0028031716
0.0027765567
0.0027394904
0.002692633
0.0026366702
0.0025723639
0.0025006015
0.0024224435
0.0023391625
0.0022522686
0.0021635114
0.0020748561
0.0019884299
0.0019064409
0.001831075
0.0017643778
0.0017081306
0.0016637348
0.0016321142
0.0016136334
0.0016080308
0.0016144108
0.0016313507
0.0016569558
0.0016889837
0.0017250434
0.0017628017
0.0018001491
0.0018353145
0.0018669252
0.0018940196
0.0019160231
0.0019326981
0.0019440807
0.0019504114
0.0019520682
0.0019495067
0.0019432085
0.0019336412
0.0019212293
0.0019063416
0.0018892872
0.0018703055
0.0018495625
0.0018271603
0.0018031574
0.0017775853
0.001750466
0.0017218282
0.0016917234
0.0016602392
0.0016275093
0.0015937203
0.0015591135
0.0015239821
0.0014886642
0.0014535309
0.0014189719
0.0013853779
0.0013531223
0.0013225431
0.0012939261
0.0012674914
0.0012433829
0.0012216631
0.0012023115
0.0011852275
0.001170238
0.0011571092
0.0011455619
0.0011352861
0.0011259563
0.0011172457
0.0011088422
0.0011004599
0.0010918481
0.0010827972
0.001073142
0.001062761
0.0010515755
0.0010395455
0.0010266654
0.0010129586
0.0009984729
0.00098327459
0.00096744174
0.00095105832
0.00093421074
0.00091698414
0.00089945931
0.0008817103
0.00086380286
0.00084579344
0.00082772903
0.00080964735
0.00079157764
0.00077354156
0.00075555449
0.00073762678
0.00071976499
0.00070197309
0.00068425343
0.00066660754
0.00064903672
0.00063154228
0.00061412579
0.00059678889
0.00057953315
0.00056235978
0.00054526934
0.0005282614
0.00051133438
0.00049448533
0.00047771001
0.00046100289
0.00044435747
0.00042776657
0.00041122279
0.00039471897
0.00037824875
0.00036180705
0.00034539055
0.00032899811
0.00031263105
0.00029629331
0.00027999157
0.00026373513
0.0002475357
0.00023140708
0.00021536468
0.00019942503
0.00018360512
0.00016792179
0.00015239105
0.00013702742
0.00012184328
0.00010684836
9.2049121e-05
7.7448637e-05
6.3045289e-05
4.8836777e-05
3.4802194e-05
2.0997971e-05
6.9511377e-06
-0.0010861299
-0.0010732151
-0.001042167
-0.0010138635
-0.0009985698
-0.00098658833
-0.00097333023
-0.00096196411
-0.00095505696
-0.00095333162
-0.00095740103
-0.00096756594
-0.00098287754
-0.0010008731
-0.0010177725
-0.0010287936
-0.0010286092
-0.0010119932
-0.00097457909
-0.00091359008
-0.00082837618
-0.00072061261
-0.00059408276
-0.0004540842
-0.0003066014
-0.00015743858
-1.148806e-05
0.00012775312
0.00025838301
0.00038003969
0.00049365845
0.00060111941
0.00070485673
0.00080747783
0.00091143722
0.0010187759
0.0011309188
0.0012485838
0.0013717734
0.0014998625
0.001631885
0.0017666163
0.0019019746
0.0020351102
0.0021629379
0.002282538
0.0023914553
0.0024878812
0.0025707342
0.0026396194
0.0026946635
0.0027362983
0.0027650593
0.0027814909
0.0027862467
0.0027801742
0.0027639861
0.0027380542
0.002702653
0.0026580597
0.0026046441
0.0025429389
0.0024736924
0.0023979078
0.0023168682
0.002232143
0.0021455692
0.002059205
0.0019752559
0.0018959753
0.00182355
0.0017599756
0.0017069351
0.0016656934
0.0016370148
0.0016210914
0.0016175086
0.0016252745
0.0016429354
0.001668597
0.001700064
0.0017350246
0.0017712508
0.0018067532
0.0018398845
0.0018693898
0.0018944133
0.0019144697
0.0019293929
0.0019392719
0.0019443827
0.0019451227
0.0019419521
0.0019353448
0.0019257497
0.0019135645
0.0018991229
0.0018826929
0.0018644742
0.0018445926
0.0018231099
0.0018000467
0.0017754007
0.0017491646
0.001721344
0.0016919728
0.001661127
0.0016289342
0.0015955799
0.0015613088
0.0015264209
0.001491264
0.0014562204
0.0014216916
0.0013880799
0.0013557692
0.0013251065
0.0012963847
0.001269829
0.0012455871
0.0012237235
0.0012042182
0.001186971
0.00117181
0.0011585027
0.0011467691
0.0011363014
0.0011267773
0.0011178738
0.0011092815
0.0011007174
0.0010919337
0.0010827235
0.0010729239
0.0010624158
0.0010511224
0.0010390052
0.0010260598
0.0010123108
0.00099780632
0.00098261249
0.00096680609
0.00095047
0.0009336892
0.0009165469
0.00089912157
0.00088148448
0.00086369831
0.00084581622
0.00082788178
0.00080992928
0.0007919846
0.00077406627
0.00075618682
0.0007383541
0.00072057268
0.00070284495
0.0006851723
0.0006675558
0.00064999683
0.00063249733
0.00061505988
0.00059768757
0.0005803837
0.00056315144
0.00054599344
0.00052891139
0.00051190585
0.00049497588
0.00047811911
0.00046133169
0.00044460858
0.0004279438
0.00041133094
0.00039476356
0.00037823581
0.00036174288
0.00034528158
0.00032885069
0.00031245137
0.0002960873
0.0002797648
0.00026349279
0.00024728258
0.00023114756
0.00021510276
0.00019916436
0.00018334905
0.00016767343
0.00015215332
0.00013680315
0.00012163534
0.00010665971
9.1883025e-05
7.7308776e-05
6.2936353e-05
4.8763186e-05
3.4776271e-05
2.1004763e-05
7.1416012e-06
-0.0015597221
-0.0015574911
-0.0014668805
-0.0013771281
-0.0013186499
-0.0012671963
-0.0012147321
-0.0011666252
-0.0011274511
-0.0011003902
-0.0010880747
-0.0010915395
-0.0011095696
-0.0011387389
-0.001173618
-0.0012071256
-0.001231137
-0.0012373451
-0.0012183056
-0.0011685204
-0.0010853266
-0.00096934599
-0.00082435651
-0.00065660968
-0.0004737828
-0.00028382408
-9.392963e-05
9.0189309e-05
0.00026468724
0.00042763349
0.00057880237
0.00071929796
0.00085110413
0.0009766341
0.0010983352
0.0012183674
0.0013383688
0.0014593294
0.0015815753
0.0017047493
0.0018279516
0.0019499951
0.0020692641
0.0021835616
0.0022904432
0.0023876787
0.0024735503
0.002547022
0.0026077887
0.0026561806
0.0026929192
0.002718858
0.0027347512
0.0027411742
0.0027387188
0.002728171
0.0027099429
0.0026840461
0.0026503154
0.002608573
0.0025587816
0.0025011503
0.002436197
0.0023647844
0.0022881325
0.0022078065
0.0021256739
0.0020438332
0.0019645153
0.0018899657
0.0018223191
0.0017634719
0.0017149672
0.0016778972
0.0016528384
0.0016398092
0.0016382611
0.0016471194
0.0016648925
0.00168976
0.0017196475
0.0017523917
0.0017859306
0.0018184446
0.001848448
0.0018748306
0.0018968585
0.0019141442
0.0019265955
0.0019343531
0.0019377249
0.0019371219
0.0019330023
0.0019258251
0.001916014
0.0019039327
0.001889873
0.0018740541
0.0018566291
0.0018376787
0.0018172197
0.0017952299
0.0017716685
0.0017464954
0.0017196894
0.0016912639
0.0016612805
0.0016298581
0.0015971782
0.0015634854
0.0015290831
0.0014943241
0.0014595976
0.0014253123
0.0013918771
0.001359682
0.0013290786
0.0013003636
0.0012737651
0.0012494324
0.0012274312
0.0012077436
0.0011902728
0.0011748504
0.0011612478
0.0011491917
0.0011383804
0.0011284989
0.0011192337
0.0011102848
0.0011013771
0.0010922697
0.0010827617
0.0010726949
0.0010619541
0.0010504653
0.0010381917
0.0010251299
0.0010113048
0.00099676338
0.00098156928
0.00096579655
0.00094952536
0.00093283738
0.00091581208
0.00089852366
0.00088103892
0.0008634158
0.0008457028
0.0008279388
0.00081015369
0.00079236919
0.00077460011
0.00075685571
0.00073914116
0.00072145886
0.00070380977
0.00068619438
0.00066861356
0.00065106905
0.00063356374
0.00061610162
0.00059868762
0.00058132715
0.00056402577
0.00054678859
0.00052961991
0.00051252272
0.00049549854
0.0004785472
0.00046166692
0.00044485442
0.00042810527
0.00041141425
0.00039477593
0.00037818509
0.00036163739
0.00034512979
0.00032866105
0.00031223209
0.00029584622
0.00027950922
0.00026322939
0.00024701736
0.00023088576
0.00021484889
0.00019892215
0.00018312154
0.00016746299
0.00015196175
0.00013663181
0.00012148523
0.00010653171
9.17781e-05
7.7228074e-05
6.2882426e-05
4.8736473e-05
3.4793139e-05
2.1021924e-05
7.433289e-06
-0.0019724102
-0.0020889751
-0.0020374765
-0.0019128709
-0.0017671057
-0.001623357
-0.0014970159
-0.0013898488
-0.001302453
-0.0012394089
-0.0012047417
-0.0011991928
-0.0012205055
-0.0012637983
-0.0013215515
-0.0013838716
-0.0014392009
-0.0014753922
-0.001481121
-0.0014474718
-0.0013693327
-0.0012461755
-0.0010819767
-0.00088432192
-0.00066299052
-0.00042841323
-0.00019032828
4.3175298e-05
0.00026617404
0.00047502744
0.00066818835
0.00084581345
0.0010092788
0.0011606798
0.0013023774
0.0014366289
0.0015653212
0.0016898069
0.0018108384
0.0019285377
0.0020424069
0.0021513921
0.0022541437
0.0023490617
0.0024344021
0.0025086072
0.0025706384
0.0026201593
0.0026576038
0.002683997
0.0027006135
0.0027087114
0.0027092578
0.0027029727
0.0026905433
0.0026727059
0.002649885
0.002622032
0.0025886576
0.002549159
0.0025030709
0.002450216
0.0023907867
0.002325389
0.0022550586
0.0021812404
0.0021057275
0.0020305647
0.0019579262
0.0018899801
0.0018287486
0.0017759818
0.0017330491
0.0017008552
0.0016797963
0.0016697422
0.0016700474
0.0016795859
0.0016968341
0.0017200788
0.0017474432
0.0017769738
0.001806824
0.0018353806
0.0018613449
0.0018837664
0.0019020405
0.0019158785
0.0019252598
0.0019303724
0.0019315505
0.0019292136
0.0019238129
0.0019157877
0.001905532
0.0018933724
0.0018795564
0.0018642512
0.0018475533
0.0018294963
0.001810057
0.0017891698
0.0017667521
0.0017427283
0.001717049
0.0016897052
0.0016607424
0.001630268
0.0015984562
0.0015655478
0.0015318445
0.0014976995
0.001463503
0.0014296647
0.001396595
0.0013646845
0.0013342849
0.0013056928
0.0012791361
0.0012547645
0.001232645
0.0012127624
0.0011950245
0.0011792694
0.0011652774
0.001152786
0.0011415054
0.0011311316
0.0011213632
0.0011119145
0.001102523
0.001092959
0.0010830308
0.0010725874
0.0010615191
0.0010497555
0.0010372623
0.0010240366
0.0010101018
0.00099550207
0.00098029757
0.00096455883
0.00094836165
0.00093178269
0.00091489584
0.00089776938
0.00088046403
0.00086303159
0.00084551462
0.00082794634
0.00081035143
0.00079274687
0.0007751434
0.00075754684
0.00073995968
0.00072238232
0.00070481448
0.00068725613
0.00066970828
0.00065217347
0.00063465597
0.00061716162
0.00059969758
0.00058227179
0.00056489251