/*--------------------------------*- C++ -*----------------------------------*\
| =========                 |                                                 |
| \\      /  F ield         | OpenFOAM: The Open Source CFD Toolbox           |
|  \\    /   O peration     | Version:  2406                                  |
|   \\  /    A nd           | Website:  www.openfoam.com                      |
|    \\/     M anipulation  |                                                 |
\*---------------------------------------------------------------------------*/
FoamFile
{
    version     2.0;
    format      ascii;
    arch        "LSB;label=32;scalar=64";
    class       surfaceScalarField;
    location    "2000";
    object      phi;
}
// * * * * * * * * * * * * * * * * * * * * * * * * * * * * * * * * * * * * * //

dimensions      [0 3 -1 0 0 0 0];

oriented        oriented;

internalField   nonuniform List<scalar> 
16957
(
1.1740294e-12
-1.1740243e-12
3.8940479e-12
-2.7200115e-12
5.1838064e-12
-1.2897524e-12
5.3298696e-12
-1.4605753e-13
5.033224e-12
2.9664968e-13
4.6414678e-12
3.9176014e-13
4.2599651e-12
3.815058e-13
3.9143239e-12
3.4564487e-13
3.6086835e-12
3.0564398e-13
3.33867e-12
2.7001772e-13
3.0973063e-12
2.4136771e-13
2.8784266e-12
2.1888413e-13
2.6774461e-12
2.0098455e-13
2.4910182e-12
1.8643178e-13
2.3166429e-12
1.7437856e-13
2.1524407e-12
1.6420505e-13
1.997033e-12
1.5540985e-13
1.8494678e-12
1.4756703e-13
1.7091544e-12
1.4031468e-13
1.57579e-12
1.3336541e-13
1.4492735e-12
1.2651714e-13
1.3296134e-12
1.1966085e-13
1.2168394e-12
1.1277446e-13
1.1109306e-12
1.0590934e-13
1.0117658e-12
9.9165306e-14
9.1910312e-13
9.2663154e-14
8.3259032e-13
8.6513179e-14
7.518028e-13
8.0788008e-14
6.7630474e-13
7.549851e-14
6.0572446e-13
7.058087e-14
5.3983229e-13
6.5892754e-14
4.7860838e-13
6.1224536e-14
4.222868e-13
5.6322095e-14
3.7136422e-13
5.0923077e-14
3.2656409e-13
4.4800454e-14
2.8875863e-13
3.7805767e-14
2.5887067e-13
2.988813e-14
2.3779993e-13
2.1070938e-14
2.264107e-13
1.1389371e-14
2.2550328e-13
9.0762915e-16
2.3567447e-13
-1.0170999e-14
2.5709889e-13
-2.1424171e-14
2.8937845e-13
-3.2279335e-14
3.3150138e-13
-4.2122683e-14
3.8189128e-13
-5.0389729e-14
4.3852918e-13
-5.6637727e-14
4.9912472e-13
-6.059544e-14
5.6130782e-13
-6.2182957e-14
6.2281115e-13
-6.1503201e-14
6.8161961e-13
-5.8808259e-14
7.3607213e-13
-5.4452297e-14
7.8491304e-13
-4.8840644e-14
8.2729849e-13
-4.2385182e-14
8.6276724e-13
-3.5468445e-14
8.9118655e-13
-2.8419055e-14
9.1268144e-13
-2.1494602e-14
9.275529e-13
-1.487127e-14
9.3619411e-13
-8.6410095e-15
9.3902126e-13
-2.8269958e-15
9.36418e-13
2.6034586e-15
9.2872029e-13
7.6978725e-15
9.1621468e-13
1.2505809e-14
8.9915104e-13
1.7063809e-14
8.7777074e-13
2.138053e-14
8.5234483e-13
2.5426139e-14
8.2321654e-13
2.912856e-14
7.9084154e-13
3.237525e-14
7.5582051e-13
3.5021299e-14
7.1891896e-13
3.6901823e-14
6.8107061e-13
3.7848682e-14
6.4336147e-13
3.7709413e-14
6.0699349e-13
3.636827e-14
5.7322768e-13
3.3766026e-14
5.4330934e-13
2.9918595e-14
5.1837894e-13
2.4930638e-14
4.9937545e-13
1.90038e-14
4.8694351e-13
1.2432241e-14
4.813662e-13
5.5776757e-15
4.8253878e-13
-1.1722075e-15
4.8999574e-13
-7.4565352e-15
5.0295791e-13
-1.2961804e-14
5.2041424e-13
-1.7455964e-14
5.4122152e-13
-2.080701e-14
5.6420397e-13
-2.2982139e-14
5.8823976e-13
-2.4035501e-14
6.1232727e-13
-2.408713e-14
6.3562794e-13
-2.3300278e-14
6.5748705e-13
-2.1858649e-14
6.7743551e-13
-1.9948002e-14
6.9517739e-13
-1.7741354e-14
7.1056761e-13
-1.5389778e-14
7.2358442e-13
-1.3016365e-14
7.3429963e-13
-1.0714927e-14
7.4285013e-13
-8.5502113e-15
7.4941212e-13
-6.5617608e-15
7.5418019e-13
-4.767773e-15
7.5735071e-13
-3.1702675e-15
7.5910884e-13
-1.7578339e-15
7.596183e-13
-5.0925452e-16
7.590145e-13
6.040312e-16
7.5740286e-13
1.6118351e-15
7.5486053e-13
2.5426077e-15
7.5144044e-13
3.4203311e-15
7.4717761e-13
4.263116e-15
7.4209649e-13
5.0813042e-15
7.3621916e-13
5.8775309e-15
7.2957323e-13
6.6460795e-15
7.2219928e-13
7.3741671e-15
7.1415682e-13
8.0426385e-15
7.0552878e-13
8.6282683e-15
6.9642368e-13
9.1052855e-15
6.8697573e-13
9.4481886e-15
6.7734242e-13
9.6335304e-15
6.6770011e-13
9.6425801e-15
6.5823753e-13
9.4628413e-15
6.4914797e-13
9.0899107e-15
6.4062035e-13
8.527934e-15
6.3283025e-13
7.790459e-15
6.2593114e-13
6.8993292e-15
6.2004693e-13
5.8844518e-15
6.1526575e-13
4.7813685e-15
6.116361e-13
3.62992e-15
6.0916519e-13
2.4711567e-15
6.0781978e-13
1.3456936e-15
6.0752909e-13
2.9084964e-16
6.0819061e-13
-6.6133624e-16
6.0967671e-13
-1.4859687e-15
6.1184232e-13
-2.1653909e-15
6.1453271e-13
-2.6901869e-15
6.1759122e-13
-3.0582622e-15
6.2086607e-13
-3.274685e-15
6.2421613e-13
-3.3498502e-15
6.2751515e-13
-3.2988576e-15
6.3065493e-13
-3.139544e-15
6.3354685e-13
-2.8916543e-15
6.3612245e-13
-2.575231e-15
6.3833291e-13
-2.2101271e-15
6.4014791e-13
-1.8146344e-15
6.4155386e-13
-1.4057391e-15
6.4255191e-13
-9.9784918e-16
6.4315552e-13
-6.0346528e-16
6.4338794e-13
-2.3217658e-16
6.4327947e-13
1.0866977e-16
6.4286534e-13
4.1439527e-16
6.421835e-13
6.8199133e-16
6.4127303e-13
9.1066491e-16
6.4017249e-13
1.1007042e-15
6.389189e-13
1.2538717e-15
6.3754675e-13
1.3723944e-15
6.3608758e-13
1.459506e-15
6.3456951e-13
1.5182516e-15
6.3301737e-13
1.5524003e-15
6.3145246e-13
1.564988e-15
6.2989312e-13
1.5594908e-15
6.2835467e-13
1.5384469e-15
6.2685003e-13
1.5046967e-15
6.2538982e-13
1.4601472e-15
6.2398287e-13
1.4069477e-15
6.2263628e-13
1.3464918e-15
6.213558e-13
1.280424e-15
6.201458e-13
1.2099144e-15
6.190095e-13
1.1363244e-15
6.179488e-13
1.0607172e-15
6.1696442e-13
9.84474e-16
6.1605572e-13
9.0871388e-16
6.1522078e-13
8.3498625e-16
6.1445625e-13
7.6455639e-16
6.1375743e-13
6.9893719e-16
6.1311822e-13
6.3930111e-16
6.1253132e-13
5.8705191e-16
6.119883e-13
5.4306013e-16
6.1147993e-13
5.0844871e-16
6.1099628e-13
4.8361451e-16
6.1052722e-13
4.6905963e-16
6.1006256e-13
4.6456978e-16
6.0959259e-13
4.6990701e-16
6.0910827e-13
4.842353e-16
6.0860169e-13
5.0656581e-16
6.0806625e-13
5.3542272e-16
6.0749701e-13
5.6926653e-16
6.068908e-13
6.0616868e-16
6.0624644e-13
6.4432918e-16
6.0556469e-13
6.8169969e-16
6.0484831e-13
7.1638911e-16
6.0410185e-13
7.4644509e-16
6.0333164e-13
7.702269e-16
6.0254544e-13
7.8616734e-16
6.0175226e-13
7.9315617e-16
6.0096197e-13
7.9025131e-16
6.0018502e-13
7.7692637e-16
5.9943204e-13
7.5294692e-16
5.9871354e-13
7.1846774e-16
5.9803953e-13
6.739607e-16
5.9741925e-13
6.2023623e-16
5.9686095e-13
5.5829441e-16
5.9637153e-13
4.8945701e-16
5.9595661e-13
4.1497334e-16
5.9561935e-13
3.3728034e-16
5.9536454e-13
2.5482766e-16
3.5235943e-16
1.0357303e-11
-1.1531323e-11
1.3785551e-11
-6.1482517e-12
1.4757205e-11
-2.2613989e-12
1.4684154e-11
-7.3000478e-14
1.3997915e-11
9.8289316e-13
1.3088556e-11
1.3011221e-12
1.2169609e-11
1.3004565e-12
1.1310018e-11
1.2052389e-12
1.0524806e-11
1.09086e-12
9.8111718e-12
9.8365655e-13
9.1596738e-12
8.9287059e-13
8.5599816e-12
8.185814e-13
8.0031847e-12
7.577864e-13
7.4820369e-12
7.0758409e-13
6.9907078e-12
6.6571175e-13
6.5246135e-12
6.3030269e-13
6.080335e-12
5.9969109e-13
5.6555459e-12
5.7235811e-13
5.2489037e-12
5.4695852e-13
4.8598843e-12
5.2238591e-13
4.4885666e-12
4.9783574e-13
4.1353864e-12
4.7284181e-13
3.8008913e-12
4.4727029e-13
3.4855278e-12
4.2127357e-13
3.1894852e-12
3.9520853e-13
2.9126147e-12
3.695342e-13
2.6544282e-12
3.4470022e-13
2.4141745e-12
3.2104242e-13
2.1909779e-12
2.9869581e-13
1.9840199e-12
2.775396e-13
1.792733e-12
2.5718048e-13
1.6169755e-12
2.3698276e-13
1.457154e-12
2.1614426e-13
1.3142629e-12
1.9381479e-13
1.189823e-12
1.6924084e-13
1.0857277e-12
1.4190147e-13
1.0040273e-12
1.1158881e-13
9.4669846e-13
7.8400046e-14
9.1550526e-13
4.2582838e-14
9.1199092e-13
4.4222545e-15
9.3726899e-13
-3.544876e-14
9.915072e-13
-7.5662057e-14
1.073547e-12
-1.1431879e-13
1.1807821e-12
-1.4935748e-13
1.3092476e-12
-1.7885503e-13
1.453886e-12
-2.0127594e-13
1.6089381e-12
-2.156473e-13
1.7683943e-12
-2.2163902e-13
1.926439e-12
-2.1954764e-13
2.0778279e-12
-2.101968e-13
2.21816e-12
-1.947841e-13
2.344029e-12
-1.7470927e-13
2.4530603e-12
-1.5141613e-13
2.5438573e-12
-1.262651e-13
2.6158834e-12
-1.0044475e-13
2.6693045e-12
-7.4915369e-14
2.7048049e-12
-5.0371354e-14
2.7233896e-12
-2.7225513e-14
2.7262036e-12
-5.6406965e-15
2.7143614e-12
1.4445868e-14
2.6889024e-12
3.3157108e-14
2.6507705e-12
5.0638004e-14
2.6008291e-12
6.7005434e-14
2.5399177e-12
8.2292266e-14
2.4689353e-12
9.6408926e-14
2.3889373e-12
1.0912695e-13
2.301229e-12
1.2008384e-13
2.2074419e-12
1.288088e-13
2.109579e-12
1.3476513e-13
2.0100218e-12
1.3740629e-13
1.9114911e-12
1.3624049e-13
1.81696e-12
1.3089976e-13
1.7295196e-12
1.2120678e-13
1.6522049e-12
1.0723373e-13
1.5877936e-12
8.9342293e-14
1.5385952e-12
6.8202621e-14
1.5062375e-12
4.479041e-14
1.4914855e-12
2.0330115e-14
1.4941482e-12
-3.8343757e-15
1.5131372e-12
-2.6444909e-14
1.5465658e-12
-4.6389921e-14
1.5919343e-12
-6.2823947e-14
1.6463668e-12
-7.5239091e-14
1.7068581e-12
-8.3472996e-14
1.7704953e-12
-8.7672182e-14
1.8346341e-12
-8.8225446e-14
1.89702e-12
-8.5685633e-14
1.9558535e-12
-8.0691457e-14
2.0098062e-12
-7.3900139e-14
2.0579996e-12
-6.5934093e-14
2.0999548e-12
-5.7344278e-14
2.1355268e-12
-4.8587876e-14
2.1648319e-12
-4.0019586e-14
2.1881743e-12
-3.1892229e-14
2.2059789e-12
-2.4366e-14
2.218734e-12
-1.7522473e-14
2.2269463e-12
-1.1382144e-14
2.2311069e-12
-5.9181129e-15
2.2316651e-12
-1.0671894e-15
2.2290073e-12
3.2621892e-15
2.2234502e-12
7.1692576e-15
2.2152429e-12
1.0750236e-14
2.204575e-12
1.4088536e-14
2.1915908e-12
1.7247666e-14
2.1764063e-12
2.0266083e-14
2.1591288e-12
2.3155264e-14
2.1398759e-12
2.5899225e-14
2.1187932e-12
2.8457143e-14
2.0960689e-12
3.0767203e-14
2.0719446e-12
3.2752864e-14
2.0467206e-12
3.4329561e-14
2.0207563e-12
3.5412847e-14
1.9944643e-12
3.5925931e-14
1.9682997e-12
3.5807561e-14
1.9427446e-12
3.5018296e-14
1.9182892e-12
3.3545781e-14
1.8954099e-12
3.140765e-14
1.8745479e-12
2.8652832e-14
1.8560877e-12
2.5359904e-14
1.8403384e-12
2.1634024e-14
1.8275192e-12
1.7600934e-14
1.8177489e-12
1.3400494e-14
1.8110425e-12
9.1779547e-15
1.8073123e-12
5.0762728e-15
1.8063739e-12
1.2295017e-15
1.8079605e-12
-2.247722e-15
1.81174e-12
-5.2652596e-15
1.8173338e-12
-7.7589429e-15
1.8243367e-12
-9.6927372e-15
1.8323364e-12
-1.1057699e-14
1.8409318e-12
-1.1869742e-14
1.8497476e-12
-1.2165352e-14
1.8584464e-12
-1.1997412e-14
1.8667371e-12
-1.1429932e-14
1.8743795e-12
-1.0533653e-14
1.8811863e-12
-9.3815255e-15
1.887022e-12
-8.0453843e-15
1.8918006e-12
-6.5928112e-15
1.8954807e-12
-5.0854918e-15
1.8980605e-12
-3.5773868e-15
1.8995717e-12
-2.1144376e-15
1.9000731e-12
-7.3330703e-16
1.8996435e-12
5.3865135e-16
1.8983754e-12
1.6827256e-15
1.8963702e-12
2.6874861e-15
1.8937327e-12
3.5484404e-15
1.8905674e-12
4.2663628e-15
1.886975e-12
4.8465343e-15
1.8830505e-12
5.2972872e-15
1.878881e-12
5.6293918e-15
1.8745448e-12
5.8547095e-15
1.8701115e-12
5.9859444e-15
1.8656414e-12
6.0353078e-15
1.8611863e-12
6.0147292e-15
1.8567899e-12
5.9348291e-15
1.8524892e-12
5.8054637e-15
1.8483143e-12
5.634984e-15
1.8442902e-12
5.4309596e-15
1.8404369e-12
5.1997287e-15
1.8367701e-12
4.9471772e-15
1.8333015e-12
4.6784521e-15
1.8300393e-12
4.3985255e-15
1.826988e-12
4.112069e-15
1.8241486e-12
3.8239095e-15
1.8215185e-12
3.5388305e-15
1.8190916e-12
3.2619641e-15
1.816858e-12
2.9983035e-15
1.8148041e-12
2.7528996e-15
1.8129132e-12
2.5304166e-15
1.811165e-12
2.3352853e-15
1.809537e-12
2.1711767e-15
1.8080042e-12
2.041242e-15
1.8065404e-12
1.9474028e-15
1.8051188e-12
1.8907017e-15
1.8037125e-12
1.8707389e-15
1.8022962e-12
1.8860791e-15
1.8008465e-12
1.9338745e-15
1.7993428e-12
2.0102067e-15
1.7977683e-12
2.1099747e-15
1.7961102e-12
2.2273013e-15
1.7943608e-12
2.3555564e-15
1.7925172e-12
2.4878772e-15
1.7905818e-12
2.6170959e-15
1.7885619e-12
2.7362302e-15
1.7864698e-12
2.8385293e-15
1.7843221e-12
2.917945e-15
1.7821391e-12
2.969172e-15
1.7799442e-12
2.9880355e-15
1.777763e-12
2.9713885e-15
1.7756225e-12
2.9173633e-15
1.7735501e-12
2.8253193e-15
1.7715726e-12
2.6959325e-15
1.7697154e-12
2.5311069e-15
1.7680016e-12
2.3339001e-15
1.7664516e-12
2.1083746e-15
1.7650816e-12
1.8594746e-15
1.763903e-12
1.5936014e-15
1.7629312e-12
1.3091392e-15
1.7621075e-12
1.07855e-15
1.1588315e-15
8.4450064e-11
-7.2738134e-13
7.8836606e-11
-5.3478452e-13
7.4829611e-11
1.7456051e-12
7.1422362e-11
3.3342557e-12
6.8117036e-11
4.2882241e-12
6.4662228e-11
4.7559338e-12
6.1125392e-11
4.8372975e-12
5.7639043e-11
4.6915912e-12
5.428567e-11
4.4442394e-12
5.1103971e-11
4.1653614e-12
4.8104996e-11
3.8918519e-12
4.5281541e-11
3.6420435e-12
4.2616346e-11
3.4229883e-12
4.008857e-11
3.2353672e-12
3.7677816e-11
3.0764707e-12
3.5366439e-11
2.9416844e-12
3.314081e-11
2.8253235e-12
3.099188e-11
2.7212909e-12
2.8915158e-11
2.6236828e-12
2.6910214e-11
2.5273317e-12
2.4979807e-11
2.4282438e-12
2.3128773e-11
2.3238772e-12
2.1362825e-11
2.2132195e-12
1.9687439e-11
2.096661e-12
1.810696e-11
1.9756885e-12
1.6624041e-11
1.8524537e-12
1.5239458e-11
1.7292844e-12
1.3952299e-11
1.6082029e-12
1.2760479e-11
1.4905173e-12
1.1661484e-11
1.3765357e-12
1.0653219e-11
1.2654467e-12
9.7348137e-12
1.1553895e-12
8.9072408e-12
1.0437184e-12
8.1736219e-12
9.2743467e-13
7.539144e-12
8.0371964e-13
7.0105979e-12
6.7044818e-13
6.5955814e-12
5.2660591e-13
6.3014261e-12
3.7255586e-13
6.1343493e-12
2.0966019e-13
6.0993433e-12
3.9428896e-14
6.1993996e-12
-1.3550442e-13
6.4337485e-12
-3.1001037e-13
6.7962907e-12
-4.7686037e-13
7.2748965e-12
-6.2796282e-13
7.8516484e-12
-7.5560644e-13
8.5038655e-12
-8.5349269e-13
9.2056956e-12
-9.1747697e-13
9.9300018e-12
-9.459448e-13
1.0650262e-11
-9.3980761e-13
1.1342234e-11
-9.0216736e-13
1.1985195e-11
-8.3774478e-13
1.2562693e-11
-7.522067e-13
1.3062803e-11
-6.515258e-13
1.3477995e-11
-5.4145587e-13
1.3804715e-11
-4.2716492e-13
1.404281e-11
-3.130093e-13
1.4194785e-11
-2.0234625e-13
1.4265019e-11
-9.745826e-14
1.4258799e-11
5.7891479e-16
1.4181774e-11
9.1471413e-14
1.4039516e-11
1.7541602e-13
1.3837285e-11
2.5286896e-13
1.3580023e-11
3.242681e-13
1.3272529e-11
3.8978757e-13
1.2919777e-11
4.4916181e-13
1.2527308e-11
5.015964e-13
1.210162e-11
5.4577259e-13
1.1650489e-11
5.7993967e-13
1.1183173e-11
6.020824e-13
1.0710437e-11
6.1014295e-13
1.0244402e-11
6.0227661e-13
9.7981838e-12
5.7711826e-13
9.3853535e-12
5.3403783e-13
9.0192339e-12
4.7335414e-13
8.7121092e-12
3.9646784e-13
8.4744011e-12
3.0591145e-13
8.313803e-12
2.0538944e-13
8.2344118e-12
9.9722282e-14
8.2362224e-12
-5.6439523e-15
8.3150176e-12
-1.0523911e-13
8.4628104e-12
-1.9418166e-13
8.6686184e-12
-2.686311e-13
8.9194934e-12
-3.2611315e-13
9.201629e-12
-3.6560768e-13
9.5013948e-12
-3.8743697e-13
9.8061878e-12
-3.9301745e-13
1.0105045e-11
-3.8454211e-13
1.0389009e-11
-3.6465353e-13
1.0651258e-11
-3.3614877e-13
1.0887066e-11
-3.0174081e-13
1.1093608e-11
-2.6388465e-13
1.1269688e-11
-2.2466747e-13
1.1415424e-11
-1.8575405e-13
1.1531909e-11
-1.4837693e-13
1.1620904e-11
-1.1335992e-13
1.1684552e-11
-8.1170354e-14
1.1725163e-11
-5.1992662e-14
1.1745047e-11
-2.5800987e-14
1.1746386e-11
-2.4058633e-15
1.173114e-11
1.8509181e-14
1.1700981e-11
3.7328536e-14
1.1657291e-11
5.4440463e-14
1.1601188e-11
7.0192861e-14
1.1533576e-11
8.485984e-14
1.1455223e-11
9.8619475e-14
1.1366837e-11
1.1154161e-13
1.1269151e-11
1.2358614e-13
1.1162998e-11
1.3461042e-13
1.104938e-11
1.4438561e-13
1.0929514e-11
1.5261969e-13
1.0804858e-11
1.5898611e-13
1.0677116e-11
1.6315517e-13
1.0548216e-11
1.6482664e-13
1.0420264e-11
1.6376054e-13
1.0295479e-11
1.5980458e-13
1.017611e-11
1.5291515e-13
1.0064347e-11
1.4317127e-13
9.9622211e-12
1.3077956e-13
9.8715112e-12
1.1607043e-13
9.7936613e-12
9.9484477e-14
9.7297115e-12
8.1551403e-14
9.68025e-12
6.2862656e-14
9.6453896e-12
4.4039096e-14
9.62477e-12
2.5696317e-14
9.6175853e-12
8.4148056e-15
9.6226337e-12
-7.2957401e-15
9.6383917e-12
-2.10227e-14
9.6630994e-12
-3.2466181e-14
9.6948543e-12
-4.1447026e-14
9.7317028e-12
-4.7905692e-14
9.7717261e-12
-5.1892493e-14
9.8131136e-12
-5.3552308e-14
9.8542219e-12
-5.3105063e-14
9.8936177e-12
-5.0825026e-14
9.9301047e-12
-4.7019815e-14
9.9627356e-12
-4.2011639e-14
9.9908116e-12
-3.6120499e-14
1.0013871e-11
-2.9651163e-14
1.0031669e-11
-2.2883039e-14
1.0044156e-11
-1.6063929e-14
1.0051448e-11
-9.4058535e-15
1.0053798e-11
-3.0830116e-15
1.0051566e-11
2.7716955e-15
1.0045184e-11
8.065074e-15
1.0035133e-11
1.2739027e-14
1.0021916e-11
1.6765727e-14
1.000604e-11
2.0143119e-14
9.9879973e-12
2.2889686e-14
9.9682554e-12
2.5039935e-14
9.9472459e-12
2.6639387e-14
9.9253604e-12
2.7740747e-14
9.9029469e-12
2.8399856e-14
9.8803095e-12
2.8672977e-14
9.8577102e-12
2.8614142e-14
9.8353714e-12
2.8273838e-14
9.813479e-12
2.7697779e-14
9.7921872e-12
2.6926784e-14
9.7716213e-12
2.5996713e-14
9.7518817e-12
2.4939155e-14
9.7330467e-12
2.378204e-14
9.7151744e-12
2.2550678e-14
9.6983045e-12
2.1268426e-14
9.682459e-12
1.9957716e-14
9.6676425e-12
1.8640471e-14
9.6538428e-12
1.7338736e-14
9.6410303e-12
1.6074599e-14
9.6291586e-12
1.4870204e-14
9.6181646e-12
1.3747091e-14
9.6079694e-12
1.2725877e-14
9.5984796e-12
1.1825256e-14
9.5895894e-12
1.1061479e-14
9.5811833e-12
1.0447317e-14
9.5731392e-12
9.9914606e-15
9.565332e-12
9.6977632e-15
9.5576377e-12
9.564924e-15
9.5499375e-12
9.5861903e-15
9.5421218e-12
9.7494857e-15
9.5340943e-12
1.0037561e-14
9.5257756e-12
1.0428656e-14
9.5171057e-12
1.0897132e-14
9.5080467e-12
1.1414536e-14
9.4985839e-12
1.1950561e-14
9.4887267e-12
1.2474223e-14
9.478508e-12
1.2954889e-14
9.4679831e-12
1.3363517e-14
9.4572273e-12
1.3673642e-14
9.446334e-12
1.3862422e-14
9.4354106e-12
1.391138e-14
9.4245749e-12
1.3807033e-14
9.413951e-12
1.3541277e-14
9.4036646e-12
1.3111663e-14
9.393839e-12
1.2521386e-14
9.3845908e-12
1.1779177e-14
9.3760256e-12
1.0898958e-14
9.3682346e-12
9.8994359e-15
9.36129e-12
8.8040589e-15
9.3552432e-12
7.6405326e-15
9.3500892e-12
6.4631602e-15
9.3457992e-12
5.3686086e-15
5.0825707e-15
9.4289411e-11
2.3721265e-13
9.2660207e-11
1.0944296e-12
9.1434858e-11
2.9709624e-12
9.0197588e-11
4.5715308e-12
8.8825755e-11
5.660061e-12
8.7213187e-11
6.3685051e-12
8.5286302e-11
6.7641855e-12
8.3059735e-11
6.9181606e-12
8.0592018e-11
6.9119602e-12
7.7947397e-11
6.8099872e-12
7.5181536e-11
6.6577183e-12
7.2336139e-11
6.4874462e-12
6.9438383e-11
6.3207504e-12
6.6503763e-11
6.1699913e-12
6.3540172e-11
6.0400664e-12
6.0551832e-11
5.9300279e-12
5.7542639e-11
5.8345194e-12
5.4518699e-11
5.7452329e-12
5.148994e-11
5.6524436e-12
4.8470737e-11
5.5465358e-12
4.5479612e-11
5.4193693e-12
4.2538169e-11
5.2653215e-12
3.9669521e-11
5.0818687e-12
3.6896541e-11
4.8696418e-12
3.4240242e-11
4.6319883e-12
3.171854e-11
4.3741563e-12
2.934556e-11
4.1022647e-12
2.7131526e-11
3.8222379e-12
2.5083179e-11
3.538866e-12
2.3204596e-11
3.25512e-12
2.1498229e-11
2.9718141e-12
1.9965958e-11
2.6876623e-12
1.8609952e-11
2.3997244e-12
1.7433209e-11
2.1041794e-12
1.6439629e-11
1.7973003e-12
1.5633658e-11
1.4764191e-12
1.5019576e-11
1.1406886e-12
1.4600546e-11
7.9158674e-13
1.4377668e-11
4.3253866e-13
1.4349906e-11
6.7190873e-14
1.4512709e-11
-2.9830697e-13
1.4856106e-11
-6.534062e-13
1.5363938e-11
-9.8469196e-13
1.6013794e-11
-1.2778188e-12
1.6777779e-11
-1.5195911e-12
1.7623937e-11
-1.6996496e-12
1.8518088e-11
-1.8116282e-12
1.9425827e-11
-1.8536836e-12
2.0314419e-11
-1.8283986e-12
2.1154404e-11
-1.7421515e-12
2.1920766e-11
-1.6041061e-12
2.2593605e-11
-1.4250453e-12
2.3158358e-11
-1.216278e-12
2.3605648e-11
-9.8874595e-13
2.3930879e-11
-7.5239502e-13
2.4133675e-11
-5.1580523e-13
2.42172e-11
-2.8587029e-13
2.4187106e-11
-6.7363926e-14
2.4050823e-11
1.368616e-13
2.3816907e-11
3.2538787e-13
2.34943e-11
4.9802405e-13
2.3091897e-11
6.552718e-13
2.2618438e-11
7.9772838e-13
2.2082644e-11
9.2558224e-13
2.1493553e-11
1.0382529e-12
2.086094e-11
1.1342104e-12
2.0195727e-11
1.210986e-12
1.9510302e-11
1.2653654e-12
1.8818653e-11
1.2937316e-12
1.8136286e-11
1.2925109e-12
1.7479891e-11
1.2586725e-12
1.6866781e-11
1.1902285e-12
1.6314132e-11
1.086688e-12
1.5838075e-11
9.4941181e-13
1.5452744e-11
7.8179949e-13
1.5169362e-11
5.89294e-13
1.4995392e-11
3.7936106e-13
1.4933717e-11
1.6139779e-13
1.4981939e-11
-5.3864747e-14
1.5132126e-11
-2.5542559e-13
1.5371684e-11
-4.3373829e-13
1.5684618e-11
-5.8156468e-13
1.6052964e-11
-6.9445834e-13
1.6458183e-11
-7.708259e-13
1.6882386e-11
-8.1163863e-13
1.7309286e-11
-8.1991632e-13
1.7724853e-11
-8.0010826e-13
1.8117675e-11
-7.5747469e-13
1.8479065e-11
-6.9753764e-13
1.8802964e-11
-6.2563933e-13
1.9085701e-11
-5.4662004e-13
1.9325646e-11
-4.6461189e-13
1.9522827e-11
-3.82934e-13
1.967852e-11
-3.0406997e-13
1.979487e-11
-2.2970858e-13
1.9874539e-11
-1.6083879e-13
1.9920437e-11
-9.7889946e-14
1.9935516e-11
-4.0879367e-14
1.9922618e-11
1.0492302e-14
1.9884375e-11
5.6752908e-14
1.9823139e-11
9.8564645e-14
1.9740971e-11
1.366097e-13
1.9639663e-11
1.7150058e-13
1.952081e-11
2.0371361e-13
1.9385885e-11
2.3354494e-13
1.9236339e-11
2.6108788e-13
1.9073695e-11
2.862309e-13
1.8899631e-11
3.0867434e-13
1.8716053e-11
3.2796398e-13
1.8525136e-11
3.4353782e-13
1.832934e-11
3.5478297e-13
1.8131398e-11
3.6109761e-13
1.7934271e-11
3.6195398e-13
1.7741075e-11
3.5695741e-13
1.7554983e-11
3.4589708e-13
1.7379115e-11
3.2878427e-13
1.7216411e-11
3.0587533e-13
1.7069514e-11
2.7767769e-13
1.6940647e-11
2.449381e-13
1.6831519e-11
2.0861253e-13
1.6743249e-11
1.6982174e-13
1.6676317e-11
1.2979615e-13
1.6630544e-11
8.9811949e-14
1.660512e-11
5.1121202e-14
1.6598644e-11
1.4891297e-14
1.6609193e-11
-1.7844468e-14
1.6634431e-11
-4.6260116e-14
1.6671735e-11
-6.9769727e-14
1.6718328e-11
-8.8039475e-14
1.6771404e-11
-1.0098159e-13
1.6828245e-11
-1.0873252e-13
1.6886313e-11
-1.1161997e-13
1.6943331e-11
-1.1012242e-13
1.6997333e-11
-1.0482619e-13
1.7046697e-11
-9.6382908e-14
1.7090157e-11
-8.5470744e-14
1.7126797e-11
-7.2760721e-14
1.7156037e-11
-5.8889671e-14
1.7177594e-11
-4.4440089e-14
1.7191458e-11
-2.9927272e-14
1.7197844e-11
-1.5791104e-14
1.7197152e-11
-2.3902964e-15
1.7189923e-11
1.0000273e-14
1.7176801e-11
2.1187886e-14
1.7158488e-11
3.105314e-14
1.7135713e-11
3.9540716e-14
1.7109207e-11
4.6649275e-14
1.7079677e-11
5.2420854e-14
1.7047787e-11
5.693047e-14
1.7014151e-11
6.027619e-14
1.6979322e-11
6.2570247e-14
1.6943791e-11
6.3931273e-14
1.6907986e-11
6.4478046e-14
1.6872275e-11
6.4324646e-14
1.6836972e-11
6.3577226e-14
1.6802338e-11
6.233205e-14
1.676859e-11
6.0674889e-14
1.6735905e-11
5.8681318e-14
1.6704426e-11
5.6417884e-14
1.6674264e-11
5.3943668e-14
1.6645503e-11
5.1312178e-14
1.6618198e-11
4.8573105e-14
1.6592382e-11
4.5774014e-14
1.6568061e-11
4.2961535e-14
1.6545218e-11
4.018218e-14
1.652381e-11
3.7482478e-14
1.6503772e-11
3.4908637e-14
1.6485013e-11
3.2505621e-14
1.6467423e-11
3.0315933e-14
1.6450871e-11
2.8378037e-14
1.6435207e-11
2.6724748e-14
1.6420273e-11
2.5381512e-14
1.64059e-11
2.4364936e-14
1.6391916e-11
2.3681523e-14
1.6378154e-11
2.3326889e-14
1.6364455e-11
2.3285384e-14
1.6350674e-11
2.3530291e-14
1.6336687e-11
2.4024469e-14
1.6322394e-11
2.4721577e-14
1.6307723e-11
2.5567684e-14
1.6292634e-11
2.650331e-14
1.6277119e-11
2.7465622e-14
1.6261202e-11
2.8390852e-14
1.6244941e-11
2.9216642e-14
1.622842e-11
2.9884463e-14
1.6211751e-11
3.0341757e-14
1.619507e-11
3.054394e-14
1.6178525e-11
3.0455947e-14
1.6162279e-11
3.0053486e-14
1.6146496e-11
2.9323792e-14
1.6131342e-11
2.8266059e-14
1.6116972e-11
2.689137e-14
1.6103528e-11
2.522233e-14
1.6091135e-11
2.3292348e-14
1.607989e-11
2.1144718e-14
1.6069862e-11
1.8832314e-14
1.6061086e-11
1.6416085e-14
1.6053557e-11
1.3992182e-14
1.6047241e-11
1.1684235e-14
1.0319594e-14
9.5029609e-11
4.6160848e-13
9.4547398e-11
1.5766508e-12
9.4488701e-11
3.0296671e-12
9.4618332e-11
4.4419054e-12
9.4699933e-11
5.5784619e-12
9.4615097e-11
6.4533439e-12
9.4279492e-11
7.0997923e-12
9.3652595e-11
7.5450595e-12
9.2732332e-11
7.8322259e-12
9.153396e-11
8.0083639e-12
9.0077768e-11
8.1139147e-12
8.8383533e-11
8.1816859e-12
8.6467296e-11
8.2369914e-12
8.434026e-11
8.2970316e-12
8.200967e-11
8.3706597e-12
7.9480946e-11
8.4587543e-12
7.6760402e-11
8.555065e-12
7.3858036e-11
8.6476004e-12
7.0789888e-11
8.7205929e-12
6.7579526e-11
8.7568988e-12
6.4258367e-11
8.7405289e-12
6.0864769e-11
8.6589204e-12
5.7442076e-11
8.5045624e-12
5.4036003e-11
8.2757145e-12
5.0691843e-11
7.9761497e-12
4.7451937e-11
7.6140628e-12
4.4353775e-11
7.2004268e-12
4.1428871e-11
6.7471436e-12
3.8702422e-11
6.2653154e-12
3.6193643e-11
5.7639003e-12
3.3916534e-11
5.2489236e-12
3.1880872e-11
4.7233249e-12
3.0093175e-11
4.1874221e-12
2.8557475e-11
3.6398794e-12
2.7275785e-11
3.0789908e-12
2.6248209e-11
2.5039963e-12
2.5472801e-11
1.9160964e-12
2.4945374e-11
1.3190146e-12
2.4659093e-11
7.1881997e-13
2.4604033e-11
1.2225139e-13
2.4765897e-11
-4.6017047e-13
2.5124717e-11
-1.0122255e-12
2.5655335e-11
-1.5153099e-12
2.6327949e-11
-1.9504326e-12
2.7109097e-11
-2.3007382e-12
2.7962975e-11
-2.5535277e-12
2.8852974e-11
-2.7016265e-12
2.9743272e-11
-2.7439818e-12
3.0600356e-11
-2.6854814e-12
3.1394298e-11
-2.536093e-12
3.2099697e-11
-2.3095046e-12
3.2696203e-11
-2.0215513e-12
3.3168692e-11
-1.6887661e-12
3.3507142e-11
-1.3271955e-12
3.3706331e-11
-9.5158419e-13
3.3765492e-11
-5.7496529e-13
3.368782e-11
-2.0819819e-13
3.3480053e-11
1.4040395e-13
3.31519e-11
4.6501422e-13
3.271486e-11
7.6242842e-13
3.218127e-11
1.0316141e-12
3.156374e-11
1.2728025e-12
3.0874895e-11
1.4865742e-12
3.0127399e-11
1.6730784e-12
2.9334179e-11
1.8314737e-12
2.8508741e-11
1.9596495e-12
2.7665479e-11
2.0542479e-12
2.6819875e-11
2.1109699e-12
2.59885e-11
2.1251073e-12
2.5188789e-11
2.0922223e-12
2.4438583e-11
2.0088789e-12
2.375547e-11
1.8733429e-12
2.3155985e-11
1.686173e-12
2.2654758e-11
1.4506402e-12
2.2263677e-11
1.1728809e-12
2.199123e-11
8.6174205e-13
2.1842e-11
5.2859098e-13
2.1816178e-11
1.8722068e-13
2.1908307e-11
-1.4599238e-13
2.2107442e-11
-4.5456028e-13
2.2398335e-11
-7.2463009e-13
2.2762881e-11
-9.4611024e-13
2.3181603e-11
-1.11318e-12
2.363499e-11
-1.2242116e-12
2.4104591e-11
-1.2812392e-12
2.457383e-11
-1.2891541e-12
2.5028522e-11
-1.2547992e-12
2.545714e-11
-1.1860919e-12
2.5850862e-11
-1.0912593e-12
2.6203451e-11
-9.7822748e-13
2.6511008e-11
-8.5417575e-13
2.6771645e-11
-7.2524832e-13
2.6985117e-11
-5.9640528e-13
2.7152434e-11
-4.7138676e-13
2.7275493e-11
-3.5276675e-13
2.7356738e-11
-2.4208334e-13
2.7398887e-11
-1.4003871e-13
2.7404733e-11
-4.6725153e-14
2.7377058e-11
3.8168485e-14
2.7318544e-11
1.1526752e-13
2.7231712e-11
1.8539689e-13
2.7118903e-11
2.4941852e-13
2.6982306e-11
3.0809872e-13
2.6824008e-11
3.6201141e-13
2.6646078e-11
4.1147517e-13
2.6450643e-11
4.5652401e-13
2.6239965e-11
4.9690854e-13
2.6016514e-11
5.3212572e-13
2.5783007e-11
5.6147206e-13
2.5542429e-11
5.841164e-13
2.5298027e-11
5.9918516e-13
2.5053271e-11
6.0585457e-13
2.4811783e-11
6.0344177e-13
2.4577252e-11
5.9148904e-13
2.4353317e-11
5.6983335e-13
2.4143444e-11
5.3865703e-13
2.3950806e-11
4.9851399e-13
2.3778153e-11
4.5033154e-13
2.3627706e-11
3.9538528e-13
2.350107e-11
3.3524889e-13
2.339917e-11
2.7172272e-13
2.3322217e-11
2.0674949e-13
2.3269711e-11
1.4231819e-13
2.3240472e-11
8.0360696e-14
2.3232703e-11
2.2661088e-14
2.3244053e-11
-2.9193931e-14
2.3271743e-11
-7.3950421e-14
2.3312714e-11
-1.1074055e-13
2.336377e-11
-1.3909475e-13
2.3421716e-11
-1.5892721e-13
2.3483483e-11
-1.7049925e-13
2.3546229e-11
-1.7436546e-13
2.3607418e-11
-1.7131054e-13
2.3664874e-11
-1.6228168e-13
2.3716815e-11
-1.483232e-13
2.3761861e-11
-1.3051608e-13
2.3799027e-11
-1.0992641e-13
2.3827701e-11
-8.756291e-14
2.3847607e-11
-6.4346151e-14
2.3858769e-11
-4.108817e-14
2.3861459e-11
-1.8480539e-14
2.3856154e-11
2.9150541e-15
2.3843487e-11
2.2667128e-14
2.3824202e-11
4.0473705e-14
2.3799105e-11
5.614999e-14
2.3769033e-11
6.9614086e-14
2.3734812e-11
8.0870187e-14
2.3697242e-11
8.9991756e-14
2.3657069e-11
9.7104063e-14
2.3614977e-11
1.0236855e-13
2.3571579e-11
1.059679e-13
2.3527417e-11
1.0809415e-13
2.3482957e-11
1.0893815e-13
2.3438599e-11
1.086825e-13
2.339468e-11
1.0749602e-13
2.3351481e-11
1.0553125e-13
2.3309233e-11
1.0292325e-13
2.3268123e-11
9.9790614e-14
2.3228304e-11
9.6237114e-14
2.3189893e-11
9.2354643e-14
2.3152979e-11
8.8225964e-14
2.3117624e-11
8.3927959e-14
2.3083864e-11
7.9533958e-14
2.305171e-11
7.5116003e-14
2.3021146e-11
7.0745752e-14
2.2992134e-11
6.6495028e-14
2.2964608e-11
6.243493e-14
2.2938479e-11
5.863476e-14
2.2913635e-11
5.5159686e-14
2.2889945e-11
5.2068651e-14
2.2867258e-11
4.9411409e-14
2.2845413e-11
4.7226218e-14
2.2824241e-11
4.5537225e-14
2.280357e-11
4.4352833e-14
2.2783232e-11
4.3664266e-14
2.2763072e-11
4.3445292e-14
2.274295e-11
4.3652388e-14
2.2722748e-11
4.4226103e-14
2.2702377e-11
4.5092855e-14
2.2681777e-11
4.6167776e-14
2.2660922e-11
4.735777e-14
2.2639823e-11
4.8565282e-14
2.2618521e-11
4.9691939e-14
2.2597095e-11
5.0642567e-14
2.2575651e-11
5.1328753e-14
2.255432e-11
5.1672427e-14
2.2533255e-11
5.1608736e-14
2.2512623e-11
5.1088579e-14
2.2492596e-11
5.0080326e-14
2.2473349e-11
4.8571026e-14
2.2455048e-11
4.6566782e-14
2.2437847e-11
4.409259e-14
2.2421877e-11
4.1191436e-14
2.2407247e-11
3.7923018e-14
2.2394029e-11
3.436196e-14
2.2382265e-11
3.0596452e-14
2.2371956e-11
2.6725296e-14
2.2363073e-11
2.2875089e-14
2.2355566e-11
1.9191634e-14
1.6366053e-14
9.5160914e-11
5.5470028e-13
9.5022627e-11
1.7149469e-12
9.5088526e-11
2.963776e-12
9.5334074e-11
4.1963615e-12
9.5645636e-11
5.2669026e-12
9.5952219e-11
6.146762e-12
9.6198047e-11
6.8539654e-12
9.633461e-11
7.4084983e-12
9.6327959e-11
7.8388793e-12
9.6155639e-11
8.1806871e-12
9.580084e-11
8.4687172e-12
9.5248851e-11
8.7336785e-12
9.4484786e-11
9.0010604e-12
9.349225e-11
9.2895708e-12
9.2253344e-11
9.6095686e-12
9.0750013e-11
9.9620871e-12
8.896648e-11
1.0338599e-11
8.6892381e-11
1.07217e-11
8.4526076e-11
1.1086899e-11
8.1877479e-11
1.1405496e-11
7.8969768e-11
1.1648241e-11
7.5839513e-11
1.1789175e-11
7.2535146e-11
1.180893e-11
6.9114003e-11
1.1696858e-11
6.5638503e-11
1.145165e-11
6.2172103e-11
1.1080463e-11
5.8775625e-11
1.0596905e-11
5.5504364e-11
1.0018406e-11
5.2406164e-11
9.3635152e-12
4.9520461e-11
8.649604e-12
4.6878105e-11
7.8912799e-12
4.4501763e-11
7.099668e-12
4.2406639e-11
6.2825462e-12
4.0601337e-11
5.4451821e-12
3.9088705e-11
4.5916234e-12
3.7866576e-11
3.7261253e-12
3.6928381e-11
2.854292e-12
3.6263838e-11
1.9835582e-12
3.5859681e-11
1.1229772e-12
3.5699336e-11