/*--------------------------------*- C++ -*----------------------------------*\
| =========                 |                                                 |
| \\      /  F ield         | OpenFOAM: The Open Source CFD Toolbox           |
|  \\    /   O peration     | Version:  2406                                  |
|   \\  /    A nd           | Website:  www.openfoam.com                      |
|    \\/     M anipulation  |                                                 |
\*---------------------------------------------------------------------------*/
FoamFile
{
    version     2.0;
    format      ascii;
    arch        "LSB;label=32;scalar=64";
    class       volScalarField;
    location    "960";
    object      p;
}
// * * * * * * * * * * * * * * * * * * * * * * * * * * * * * * * * * * * * * //

dimensions      [0 2 -2 0 0 0 0];

internalField   nonuniform List<scalar> 
11000
(
2.4415395e-05
2.7615985e-05
3.9229143e-05
5.7147649e-05
7.6956345e-05
9.5837052e-05
0.000112308
0.00012580792
0.00013634932
0.00014424716
0.00014993563
0.00015386108
0.00015642795
0.00015797796
0.0001587871
0.00015907111
0.00015899436
0.00015867929
0.00015821509
0.00015766521
0.00015707357
0.00015646947
0.00015587147
0.00015529033
0.00015473133
0.00015419594
0.00015368314
0.00015319034
0.00015271406
0.00015225044
0.00015179552
0.00015134552
0.00015089697
0.00015044676
0.00014999221
0.00014953105
0.00014906143
0.0001485819
0.00014809134
0.00014758898
0.00014707427
0.00014654694
0.0001460069
0.00014545421
0.00014488907
0.00014431178
0.0001437227
0.00014312225
0.00014251088
0.00014188903
0.00014125718
0.00014061576
0.00013996522
0.00013930596
0.00013863836
0.00013796275
0.00013727944
0.00013658871
0.0001358908
0.00013518591
0.00013447421
0.00013375584
0.00013303091
0.00013229951
0.00013156171
0.00013081755
0.00013006705
0.00012931023
0.00012854708
0.00012777761
0.00012700178
0.00012621959
0.00012543101
0.00012463601
0.00012383457
0.00012302667
0.0001222123
0.00012139143
0.00012056407
0.00011973021
0.00011888987
0.00011804305
0.00011718979
0.00011633011
0.00011546406
0.0001145917
0.00011371307
0.00011282824
0.0001119373
0.00011104033
0.00011013743
0.00010922868
0.00010831421
0.00010739413
0.00010646855
0.00010553761
0.00010460143
0.00010366016
0.00010271394
0.0001017629
0.00010080721
9.9847007e-05
9.888245e-05
9.7913692e-05
9.6940892e-05
9.5964206e-05
9.4983792e-05
9.3999808e-05
9.3012412e-05
9.202176e-05
9.1028008e-05
9.003131e-05
8.9031817e-05
8.8029682e-05
8.702505e-05
8.6018068e-05
8.5008877e-05
8.3997618e-05
8.2984426e-05
8.1969435e-05
8.0952773e-05
7.9934567e-05
7.8914938e-05
7.7894006e-05
7.6871883e-05
7.5848682e-05
7.4824508e-05
7.3799464e-05
7.2773649e-05
7.1747156e-05
7.0720078e-05
6.96925e-05
6.8664505e-05
6.7636172e-05
6.6607576e-05
6.5578789e-05
6.4549877e-05
6.3520906e-05
6.2491934e-05
6.1463019e-05
6.0434215e-05
5.9405571e-05
5.8377135e-05
5.7348949e-05
5.6321056e-05
5.5293491e-05
5.426629e-05
5.3239486e-05
5.2213107e-05
5.118718e-05
5.016173e-05
4.9136778e-05
4.8112344e-05
4.7088444e-05
4.6065096e-05
4.504231e-05
4.40201e-05
4.2998473e-05
4.1977438e-05
4.0957e-05
3.9937164e-05
3.8917932e-05
3.7899305e-05
3.6881283e-05
3.5863865e-05
3.4847047e-05
3.3830826e-05
3.2815195e-05
3.180015e-05
3.0785681e-05
2.9771781e-05
2.8758441e-05
2.7745649e-05
2.6733395e-05
2.5721666e-05
2.471045e-05
2.3699732e-05
2.2689499e-05
2.1679735e-05
2.0670424e-05
1.9661549e-05
1.8653093e-05
1.7645038e-05
1.6637365e-05
1.5630054e-05
1.4623085e-05
1.3616436e-05
1.2610086e-05
1.1604009e-05
1.059818e-05
9.5925664e-06
8.5871313e-06
7.5818239e-06
6.5765708e-06
5.5712584e-06
4.5656821e-06
3.5594277e-06
2.5520277e-06
1.5436591e-06
5.2637198e-07
2.3551488e-05
2.7232955e-05
3.836478e-05
5.5352698e-05
7.4208985e-05
9.240491e-05
0.00010855281
0.00012205424
0.0001328346
0.00014112137
0.00014727544
0.00015168828
0.00015472748
0.00015671243
0.00015790742
0.00015852378
0.00015872616
0.0001586401
0.00015835942
0.00015795285
0.00015746975
0.00015694464
0.0001564009
0.00015585363
0.00015531194
0.00015478063
0.00015426155
0.0001537545
0.00015325803
0.00015276994
0.00015228765
0.00015180847
0.00015132981
0.00015084924
0.0001503646
0.00014987404
0.00014937598
0.00014886918
0.00014835266
0.0001478257
0.0001472878
0.00014673868
0.00014617822
0.00014560644
0.00014502348
0.00014442957
0.000143825
0.00014321012
0.00014258529
0.00014195091
0.00014130737
0.00014065504
0.00013999432
0.00013932553
0.00013864902
0.00013796507
0.00013727395
0.0001365759
0.00013587112
0.00013515979
0.00013444204
0.00013371801
0.00013298777
0.00013225139
0.00013150893
0.00013076041
0.00013000585
0.00012924525
0.00012847859
0.00012770585
0.00012692702
0.00012614206
0.00012535095
0.00012455364
0.00012375011
0.00012294033
0.00012212427
0.00012130193
0.00012047328
0.00011963832
0.00011879705
0.00011794948
0.00011709563
0.00011623553
0.0001153692
0.0001144967
0.00011361808
0.0001127334
0.00011184273
0.00011094615
0.00011004375
0.00010913562
0.00010822186
0.00010730258
0.00010637791
0.00010544795
0.00010451283
0.0001035727
0.00010262767
0.0001016779
0.00010072352
9.9764691e-05
9.8801548e-05
9.7834246e-05
9.6862938e-05
9.5887775e-05
9.4908913e-05
9.3926504e-05
9.2940702e-05
9.195166e-05
9.0959529e-05
8.9964461e-05
8.8966605e-05
8.7966107e-05
8.6963112e-05
8.5957763e-05
8.49502e-05
8.394056e-05
8.2928976e-05
8.191558e-05
8.0900498e-05
7.9883856e-05
7.8865772e-05
7.7846365e-05
7.6825746e-05
7.5804026e-05
7.4781309e-05
7.3757697e-05
7.2733288e-05
7.1708175e-05
7.0682449e-05
6.9656196e-05
6.8629497e-05
6.7602431e-05
6.6575073e-05
6.5547493e-05
6.451976e-05
6.3491936e-05
6.2464083e-05
6.1436256e-05
6.040851e-05
5.9380894e-05
5.8353456e-05
5.7326239e-05
5.6299284e-05
5.527263e-05
5.424631e-05
5.3220359e-05
5.2194804e-05
5.1169674e-05
5.0144993e-05
4.9120784e-05
4.8097065e-05
4.7073856e-05
4.6051172e-05
4.5029025e-05
4.4007429e-05
4.2986393e-05
4.1965925e-05
4.0946031e-05
3.9926716e-05
3.8907982e-05
3.7889833e-05
3.6872267e-05
3.5855284e-05
3.4838882e-05
3.3823056e-05
3.2807802e-05
3.1793114e-05
3.0778984e-05
2.9765405e-05
2.8752368e-05
2.7739863e-05
2.6727878e-05
2.5716403e-05
2.4705423e-05
2.3694926e-05
2.2684898e-05
2.1675324e-05
2.0666186e-05
1.965747e-05
1.8649157e-05
1.7641229e-05
1.6633666e-05
1.5626448e-05
1.4619555e-05
1.3612962e-05
1.2606644e-05
1.1600576e-05
1.0594724e-05
9.5890534e-06
8.5835175e-06
7.5780564e-06
6.5725873e-06
5.5669913e-06
4.5610718e-06
3.5544728e-06
2.5469881e-06
1.5395505e-06
5.2495335e-07
1.1484303e-05
1.9285873e-05
3.323325e-05
5.1788447e-05
7.1362359e-05
8.9826136e-05
0.00010607418
0.0001196668
0.00013059628
0.00013910009
0.00014552401
0.00015023673
0.00015358398
0.00015586776
0.00015734022
0.0001582053
0.00015862401
0.00015872101
0.0001585911
0.00015830522
0.00015791558
0.00015745985
0.00015696463
0.00015644817
0.00015592249
0.00015539504
0.00015487004
0.00015434938
0.0001538334
0.0001533214
0.00015281209
0.00015230384
0.00015179491
0.00015128358
0.00015076823
0.00015024743
0.00014971993
0.0001491847
0.00014864094
0.00014808802
0.00014752552
0.00014695316
0.00014637082
0.00014577849
0.00014517628
0.00014456434
0.00014394293
0.00014331231
0.00014267278
0.00014202468
0.00014136832
0.00014070403
0.00014003213
0.0001393529
0.00013866661
0.00013797353
0.00013727386
0.00013656781
0.00013585554
0.00013513719
0.00013441288
0.0001336827
0.00013294671
0.00013220496
0.00013145748
0.00013070428
0.00012994535
0.00012918069
0.00012841027
0.00012763405
0.00012685201
0.00012606409
0.00012527027
0.0001244705
0.00012366473
0.00012285294
0.00012203509
0.00012121116
0.00012038112
0.00011954496
0.00011870268
0.00011785428
0.00011699977
0.00011613916
0.00011527249
0.0001143998
0.00011352113
0.00011263654
0.00011174608
0.00011084984
0.0001099479
0.00010904033
0.00010812725
0.00010720874
0.00010628493
0.00010535592
0.00010442183
0.0001034828
0.00010253895
0.00010159041
0.00010063733
9.9679842e-05
9.8718094e-05
9.775223e-05
9.6782398e-05
9.5808746e-05
9.4831424e-05
9.385058e-05
9.2866366e-05
9.1878929e-05
9.0888418e-05
8.989498e-05
8.8898761e-05
8.7899904e-05
8.6898552e-05
8.5894845e-05
8.4888919e-05
8.3880909e-05
8.2870947e-05
8.1859161e-05
8.0845677e-05
7.9830616e-05
7.8814098e-05
7.7796237e-05
7.6777145e-05
7.5756931e-05
7.4735697e-05
7.3713545e-05
7.2690571e-05
7.1666868e-05
7.0642525e-05
6.9617627e-05
6.8592257e-05
6.7566491e-05
6.6540405e-05
6.5514069e-05
6.4487549e-05
6.346091e-05
6.2434211e-05
6.140751e-05
6.0380859e-05
5.9354309e-05
5.8327907e-05
5.7301697e-05
5.627572e-05
5.5250014e-05
5.4224615e-05
5.3199554e-05
5.2174863e-05
5.1150568e-05
5.0126695e-05
4.9103266e-05
4.8080302e-05
4.705782e-05
4.6035838e-05
4.5014368e-05
4.3993424e-05
4.2973014e-05
4.1953149e-05
4.0933834e-05
3.9915075e-05
3.8896876e-05
3.7879238e-05
3.6862163e-05
3.5845649e-05
3.4829694e-05
3.3814297e-05
3.2799451e-05
3.1785151e-05
3.0771392e-05
2.9758165e-05
2.8745461e-05
2.7733271e-05
2.6721585e-05
2.5710391e-05
2.4699676e-05
2.3689428e-05
2.2679631e-05
2.1670273e-05
2.0661335e-05
1.9652803e-05
1.8644658e-05
1.7636882e-05
1.6629454e-05
1.5622355e-05
1.4615561e-05
1.3609049e-05
1.2602792e-05
1.159676e-05
1.059092e-05
9.5852304e-06
8.5796434e-06
7.5740961e-06
6.5685068e-06
5.5627681e-06
4.5567179e-06
3.5500669e-06
2.5427698e-06
1.5365417e-06
5.2535783e-07
-1.5154424e-05
2.609929e-06
2.4067988e-05
4.7178023e-05
6.9299938e-05
8.8969666e-05
0.00010565469
0.00011932884
0.00013021713
0.00013867019
0.00014507958
0.00014982396
0.00015324253
0.00015562514
0.00015721145
0.00015819485
0.00015872839
0.00015893121
0.00015889469
0.00015868802
0.00015836283
0.00015795714
0.00015749842
0.00015700617
0.00015649382
0.00015597035
0.00015544142
0.00015491032
0.00015437866
0.00015384692
0.0001533148
0.00015278157
0.0001522462
0.00015170761
0.00015116469
0.00015061641
0.00015006186
0.00014950026
0.00014893099
0.00014835355
0.00014776761
0.00014717296
0.0001465695
0.00014595722
0.0001453362
0.00014470658
0.00014406856
0.00014342238
0.00014276828
0.00014210655
0.00014143744
0.00014076123
0.00014007818
0.00013938854
0.00013869253
0.00013799035
0.00013728219
0.0001365682
0.00013584851
0.00013512323
0.00013439245
0.00013365622
0.00013291459
0.00013216758
0.0001314152
0.00013065744
0.00012989427
0.00012912567
0.0001283516
0.00012757202
0.00012678687
0.0001259961
0.00012519966
0.0001243975
0.00012358957
0.00012277583
0.00012195622
0.00012113073
0.00012029932
0.00011946197
0.00011861867
0.0001177694
0.00011691419
0.00011605303
0.00011518595
0.00011431298
0.00011343417
0.00011254956
0.0001116592
0.00011076317
0.00010986154
0.0001089544
0.00010804182
0.00010712392
0.00010620079
0.00010527254
0.0001043393
0.00010340117
0.00010245829
0.00010151078
0.00010055878
9.9602423e-05
9.8641853e-05
9.7677208e-05
9.6708632e-05
9.5736269e-05
9.4760266e-05
9.3780767e-05
9.2797919e-05
9.1811867e-05
9.0822758e-05
8.9830734e-05
8.8835938e-05
8.7838512e-05
8.6838595e-05
8.5836324e-05
8.4831834e-05
8.3825257e-05
8.2816723e-05
8.1806359e-05
8.0794287e-05
7.9780628e-05
7.87655e-05
7.7749015e-05
7.6731285e-05
7.5712415e-05
7.4692509e-05
7.3671666e-05
7.2649981e-05
7.1627547e-05
7.0604451e-05
6.9580779e-05
6.8556612e-05
6.7532026e-05
6.6507096e-05
6.5481892e-05
6.445648e-05
6.3430924e-05
6.2405283e-05
6.1379614e-05
6.0353971e-05
5.9328404e-05
5.8302959e-05
5.7277681e-05
5.6252611e-05
5.5227787e-05
5.4203244e-05
5.3179016e-05
5.2155132e-05
5.113162e-05
5.0108506e-05
4.9085812e-05
4.806356e-05
4.7041767e-05
4.602045e-05
4.4999623e-05
4.3979299e-05
4.2959489e-05
4.1940201e-05
4.0921443e-05
3.990322e-05
3.8885536e-05
3.7868394e-05
3.6851795e-05
3.5835738e-05
3.4820222e-05
3.3805244e-05
3.2790801e-05
3.1776886e-05
3.0763494e-05
2.9750618e-05
2.8738248e-05
2.7726377e-05
2.6714993e-05
2.5704085e-05
2.4693642e-05
2.3683651e-05
2.2674096e-05
2.1664965e-05
2.0656241e-05
1.9647908e-05
1.8639947e-05
1.7632341e-05
1.662507e-05
1.5618112e-05
1.4611445e-05
1.3605044e-05
1.2598883e-05
1.159293e-05
1.0587152e-05
9.5815108e-06
8.5759587e-06
7.5704401e-06
6.5648866e-06
5.5592175e-06
4.5533209e-06
3.5469852e-06
2.5402931e-06
1.5354241e-06
5.2670057e-07
-6.5711607e-05
-2.3631437e-05
1.3435181e-05
4.358177e-05
6.9115676e-05
9.0145811e-05
0.00010707424
0.0001205349
0.00013108747
0.00013922738
0.00014539986
0.00014999253
0.00015333386
0.00015569673
0.00015730376
0.00015833361
0.0001589277
0.00015919642
0.00015922488
0.00015907798
0.0001588048
0.00015844197
0.00015801647
0.00015754791
0.00015705029
0.00015653337
0.00015600376
0.00015546578
0.00015492204
0.00015437397
0.00015382218
0.00015326672
0.00015270729
0.00015214342
0.00015157451
0.00015099998
0.00015041927
0.0001498319
0.00014923745
0.00014863561
0.00014802618
0.00014740903
0.00014678411
0.00014615144
0.00014551113
0.00014486329
0.00014420811
0.00014354579
0.00014287655
0.00014220061
0.0001415182
0.00014082955
0.00014013487
0.00013943435
0.00013872818
0.00013801651
0.0001372995
0.00013657724
0.00013584983
0.00013511736
0.00013437987
0.00013363738
0.00013288992
0.00013213748
0.00013138005
0.00013061759
0.00012985007
0.00012907742
0.00012829961
0.00012751657
0.00012672822
0.00012593452
0.00012513539
0.00012433077
0.0001235206
0.00012270482
0.00012188339
0.00012105626
0.00012022339
0.00011938476
0.00011854034
0.00011769012
0.0001168341
0.00011597228
0.00011510469
0.00011423133
0.00011335226
0.0001124675
0.00011157712
0.00011068117
0.00010977973
0.00010887286
0.00010796066
0.00010704322
0.00010612063
0.000105193
0.00010426044
0.00010332307
0.00010238101
0.00010143438
0.00010048331
9.9527939e-05
9.8568397e-05
9.7604824e-05
9.6637357e-05
9.5666139e-05
9.4691311e-05
9.3713015e-05
9.2731396e-05
9.1746594e-05
9.0758752e-05
8.9768012e-05
8.8774513e-05
8.7778393e-05
8.6779791e-05
8.577884e-05
8.4775673e-05
8.3770419e-05
8.2763208e-05
8.1754163e-05
8.0743405e-05
7.9731054e-05
7.8717226e-05
7.7702031e-05
7.6685579e-05
7.5667976e-05
7.4649322e-05
7.3629717e-05
7.2609254e-05
7.1588025e-05
7.0566117e-05
6.9543614e-05
6.8520597e-05
6.7497142e-05
6.6473322e-05
6.5449206e-05
6.4424862e-05
6.3400353e-05
6.2375736e-05
6.135107e-05
6.0326407e-05
5.9301797e-05
5.8277287e-05
5.7252921e-05
5.622874e-05
5.5204782e-05
5.4181083e-05
5.3157676e-05
5.213459e-05
5.1111855e-05
5.0089495e-05
4.9067533e-05
4.804599e-05
4.7024885e-05
4.6004235e-05
4.4984055e-05
4.3964356e-05
4.2945151e-05
4.1926448e-05
4.0908255e-05
3.9890577e-05
3.8873419e-05
3.7856784e-05
3.6840674e-05
3.5825087e-05
3.4810024e-05
3.3795482e-05
3.2781456e-05
3.1767943e-05
3.0754936e-05
2.9742428e-05
2.8730412e-05
2.7718878e-05
2.6707816e-05
2.5697216e-05
2.4687066e-05
2.3677353e-05
2.2668064e-05
2.1659184e-05
2.0650698e-05
1.9642589e-05
1.8634839e-05
1.7627432e-05
1.6620346e-05
1.5613561e-05
1.4607055e-05
1.3600803e-05
1.2594778e-05
1.1588952e-05
1.0583294e-05
9.5777664e-06
8.5723303e-06
7.5669401e-06
6.5615455e-06
5.5560946e-06
4.5505219e-06
3.5446787e-06
2.5387317e-06
1.5351356e-06
5.283115e-07
-0.00019641406
-6.979577e-05
2.9168056e-06
4.3003121e-05
7.1996034e-05
9.3799997e-05
0.00011027239
0.00012295819
0.00013277945
0.00014033625
0.00014608748
0.00015040084
0.00015357516
0.00015585445
0.00015743679
0.00015848139
0.00015911486
0.00015943616
0.00015952208
0.00015943198
0.00015921118
0.00015889394
0.00015850598
0.00015806639
0.00015758922
0.00015708465
0.00015656
0.00015602038
0.0001554693
0.00015490909
0.0001543412
0.00015376651
0.00015318545
0.00015259818
0.0001520047
0.0001514049
0.00015079863
0.00015018576
0.00014956614
0.00014893969
0.00014830637
0.00014766617
0.00014701914
0.00014636537
0.00014570498
0.00014503812
0.00014436496
0.00014368568
0.00014300049
0.00014230957
0.00014161311
0.0001409113
0.00014020431
0.00013949228
0.00013877536
0.00013805366
0.00013732727
0.00013659628
0.00013586073
0.00013512066
0.00013437609
0.00013362702
0.00013287343
0.00013211528
0.00013135254
0.00013058515
0.00012981305
0.00012903616
0.00012825441
0.00012746773
0.00012667602
0.00012587922
0.00012507724
0.00012427001
0.00012345745
0.0001226395
0.00012181609
0.00012098718
0.00012015272
0.00011931266
0.00011846698
0.00011761566
0.00011675869
0.00011589607
0.00011502781
0.00011415391
0.00011327443
0.00011238938
0.00011149881
0.00011060279
0.00010970137
0.00010879463
0.00010788265
0.00010696551
0.0001060433
0.00010511613
0.00010418411
0.00010324734
0.00010230595
0.00010136005
0.00010040977
9.945523e-05
9.8496574e-05
9.7533929e-05
9.6567434e-05
9.5597224e-05
9.4623439e-05
9.3646217e-05
9.2665699e-05
9.1682025e-05
9.0695333e-05
8.9705761e-05
8.8713448e-05
8.7718528e-05
8.6721137e-05
8.5721407e-05
8.4719468e-05
8.3715448e-05
8.2709472e-05
8.1701664e-05
8.0692143e-05
7.9681026e-05
7.8668427e-05
7.7654456e-05
7.6639221e-05
7.5622825e-05
7.460537e-05
7.3586952e-05
7.2567664e-05
7.1547597e-05
7.0526837e-05
6.9505467e-05
6.8483566e-05
6.7461211e-05
6.6438475e-05
6.5415425e-05
6.4392128e-05
6.3368646e-05
6.2345039e-05
6.1321362e-05
6.0297669e-05
5.9274008e-05
5.8250427e-05
5.7226969e-05
5.6203675e-05
5.5180584e-05
5.4157731e-05
5.3135149e-05
5.2112868e-05
5.1090916e-05
5.0069319e-05
4.9048099e-05
4.8027278e-05
4.7006875e-05
4.5986906e-05
4.4967387e-05
4.394833e-05
4.2929747e-05
4.1911647e-05
4.0894037e-05
3.9876925e-05
3.8860314e-05
3.7844208e-05
3.6828608e-05
3.5813515e-05
3.4798927e-05
3.3784844e-05
3.2771261e-05
3.1758173e-05
3.0745576e-05
2.9733463e-05
2.8721826e-05
2.7710656e-05
2.6699944e-05
2.5689679e-05
2.467985e-05
2.3670445e-05
2.2661449e-05
2.165285e-05
2.0644632e-05
1.9636778e-05
1.8629273e-05
1.7622097e-05
1.6615233e-05
1.5608658e-05
1.4602352e-05
1.3596291e-05
1.2590451e-05
1.1584805e-05
1.0579325e-05
9.57398e-06
8.5687382e-06
7.5635664e-06
6.5584322e-06
5.5533097e-06
4.548169e-06
3.5429037e-06
2.5377274e-06
1.5352804e-06
5.3003922e-07
-0.00037431448
-0.00010060632
9.1556862e-06
5.3256439e-05
8.1110893e-05
0.00010073119
0.00011510825
0.00012615387
0.00013478982
0.00014152873
0.00014673926
0.00015071385
0.00015369344
0.00015587871
0.00015743584
0.00015850088
0.00015918265
0.00015956707
0.0001597223
0.00015970152
0.00015954576
0.00015928658
0.00015894811
0.00015854873
0.00015810237
0.00015761957
0.00015710824
0.00015657432
0.00015602222
0.0001554552
0.00015487563
0.00015428527
0.00015368537
0.00015307683
0.00015246028
0.00015183621
0.00015120494
0.00015056674
0.00014992182
0.00014927038
0.00014861259
0.00014794862
0.00014727865
0.00014660286
0.00014592143
0.00014523455
0.00014454241
0.00014384519
0.00014314308
0.00014243624
0.00014172484
0.00014100902
0.00014028891
0.00013956461
0.00013883623
0.00013810382
0.00013736745
0.00013662714
0.00013588291
0.00013513475
0.00013438265
0.00013362656
0.00013286644
0.00013210222
0.00013133383
0.00013056118
0.0001297842
0.00012900278
0.00012821683
0.00012742625
0.00012663094
0.0001258308
0.00012502575
0.00012421568
0.00012340052
0.00012258019
0.0001217546
0.0001209237
0.00012008744
0.00011924576
0.00011839863
0.00011754602
0.0001166879
0.00011582428
0.00011495516
0.00011408054
0.00011320044
0.00011231491
0.00011142398
0.00011052769
0.00010962612
0.00010871932
0.00010780737
0.00010689035
0.00010596835
0.00010504147
0.00010410981
0.00010317347
0.00010223258
0.00010128724
0.00010033758
9.9383723e-05
9.8425797e-05
9.7463933e-05
9.6498263e-05
9.552892e-05
9.4556041e-05
9.3579762e-05
9.2600219e-05
9.1617549e-05
9.0631888e-05
8.9643372e-05
8.8652135e-05
8.7658312e-05
8.6662034e-05
8.566343e-05
8.466263e-05
8.3659758e-05
8.2654939e-05
8.1648293e-05
8.0639937e-05
7.9629988e-05
7.8618556e-05
7.7605752e-05
7.6591681e-05
7.5576444e-05
7.4560142e-05
7.354287e-05
7.2524721e-05
7.1505782e-05
7.0486141e-05
6.9465877e-05
6.8445071e-05
6.7423797e-05
6.6402127e-05
6.538013e-05
6.435787e-05
6.3335409e-05
6.2312806e-05
6.1290116e-05
6.0267392e-05
5.9244683e-05
5.8222035e-05
5.7199492e-05
5.6177095e-05
5.5154881e-05
5.4132886e-05
5.3111143e-05
5.2089682e-05
5.106853e-05
5.0047714e-05
4.9027256e-05
4.8007177e-05
4.6987497e-05
4.5968233e-05
4.4949399e-05
4.3931008e-05
4.2913073e-05
4.1895601e-05
4.0878603e-05
3.9862083e-05
3.8846047e-05
3.7830498e-05
3.6815438e-05
3.5800868e-05
3.4786786e-05
3.3773192e-05
3.2760082e-05
3.1747452e-05
3.0735297e-05
2.972361e-05
2.8712384e-05
2.7701611e-05
2.6691281e-05
2.5681385e-05
2.4671911e-05
2.3662847e-05
2.265418e-05
2.1645897e-05
2.0637982e-05
1.9630421e-05
1.8623197e-05
1.7616293e-05
1.6609689e-05
1.5603368e-05
1.4597307e-05
1.3591486e-05
1.2585883e-05
1.1580473e-05
1.0575232e-05
9.5701375e-06
8.5651644e-06
7.5602918e-06
6.555503e-06
5.5507926e-06
4.5461556e-06
3.5415105e-06
2.5371046e-06
1.5357155e-06
5.3173576e-07
0.00022816397
0.00012545906
9.3162856e-05
9.3948792e-05
0.00010215948
0.00011174099
0.00012109256
0.00012942811
0.00013648225
0.00014227405
0.0001469234
0.00015058162
0.0001534053
0.00015554171
0.00015712037
0.00015824986
0.00015901997
0.00015950474
0.00015976343
0.00015984288
0.00015977995
0.00015960359
0.00015933648
0.00015899642
0.00015859742
0.00015815051
0.00015766444
0.00015714613
0.00015660109
0.0001560337
0.00015544746
0.00015484517
0.00015422907
0.00015360094
0.00015296223
0.00015231411
0.00015165752
0.00015099325
0.00015032194
0.00014964415
0.00014896032
0.00014827088
0.00014757617
0.00014687652
0.00014617219
0.00014546345
0.00014475052
0.0001440336
0.00014331287
0.00014258849
0.00014186059
0.00014112928
0.00014039466
0.00013965679
0.0001389157
0.00013817144
0.00013742401
0.00013667338
0.00013591952
0.00013516239
0.00013440193
0.00013363806
0.00013287068
0.00013209971
0.00013132503
0.00013054654
0.00012976411
0.00012897763
0.00012818697
0.00012739202
0.00012659265
0.00012578874
0.0001249802
0.0001241669
0.00012334875
0.00012252566
0.00012169754
0.00012086432
0.00012002592
0.0001191823
0.0001183334
0.00011747919
0.00011661964
0.00011575473
0.00011488447
0.00011400885
0.00011312789
0.00011224162
0.00011135007
0.00011045328
0.00010955131
0.00010864422
0.00010773209
0.00010681498
0.00010589298
0.00010496619
0.0001040347
0.00010309862
0.00010215805
0.00010121311
0.00010026391
9.931058e-05
9.8353241e-05
9.7392019e-05
9.6427043e-05
9.5458445e-05
9.4486356e-05
9.351091e-05
9.253224e-05
9.1550479e-05
9.0565762e-05
8.957822e-05
8.8587986e-05
8.7595191e-05
8.6599964e-05
8.5602432e-05
8.4602721e-05
8.3600954e-05
8.2597253e-05
8.1591737e-05
8.058452e-05
7.9575717e-05
7.8565437e-05
7.7553787e-05
7.6540872e-05
7.5526793e-05
7.4511646e-05
7.3495526e-05
7.2478524e-05
7.1460727e-05
7.044222e-05
6.9423084e-05
6.8403395e-05
6.7383229e-05
6.6362655e-05
6.5341741e-05
6.4320551e-05
6.3299147e-05
6.2277587e-05
6.1255924e-05
6.0234212e-05
5.9212499e-05
5.819083e-05
5.7169249e-05
5.6147796e-05
5.5126508e-05
5.4105422e-05
5.3084569e-05
5.2063979e-05
5.1043681e-05
5.0023699e-05
4.9004056e-05
4.7984775e-05
4.6965872e-05
4.5947367e-05
4.4929273e-05
4.3911604e-05
4.2894371e-05
4.1877584e-05
4.0861251e-05
3.9845379e-05
3.8829973e-05
3.7815036e-05
3.680057e-05
3.5786577e-05
3.4773056e-05
3.3760005e-05
3.2747421e-05
3.1735302e-05
3.0723641e-05
2.9712432e-05
2.870167e-05
2.7691345e-05
2.6681449e-05
2.5671973e-05
2.4662904e-05
2.3654233e-05
2.2645946e-05
2.163803e-05
2.0630471e-05
1.9623254e-05
1.8616364e-05
1.7609784e-05
1.6603496e-05
1.5597483e-05
1.4591726e-05
1.3586205e-05
1.2580901e-05
1.1575793e-05
1.0570864e-05
9.5660937e-06
8.5614682e-06
7.5569765e-06
6.5526149e-06
5.5483935e-06
4.5443226e-06
3.5403349e-06
2.5367259e-06
1.5363815e-06
5.3319506e-07
0.00018096483
0.00011719458
9.9438322e-05
0.00010333641
0.00010943442
0.00011627389
0.00012358229
0.00013049424
0.00013659114
0.00014178551
0.00014610041
0.00014961006
0.00015241363
0.00015461417
0.00015630808
0.00015758236
0.00015851198
0.00015915946
0.0001595759
0.00015980277
0.00015987351
0.00015981516
0.00015964958
0.00015939456
0.00015906468
0.00015867193
0.00015822628
0.00015773602
0.00015720808
0.00015664829
0.00015606153
0.00015545189
0.00015482284
0.00015417725
0.00015351755
0.00015284576
0.0001521636
0.00015147248
0.00015077359
0.00015006793
0.00014935634
0.00014863953
0.00014791807
0.00014719248
0.00014646317
0.00014573048
0.0001449947
0.00014425608
0.0001435148
0.00014277101
0.00014202484
0.00014127636
0.00014052562
0.00013977265
0.00013901744
0.00013825998
0.00013750021
0.00013673807
0.00013597348
0.00013520633
0.00013443653
0.00013366395
0.00013288845
0.00013210991
0.00013132818
0.0001305431
0.00012975454
0.00012896234
0.00012816636
0.00012736644
0.00012656244
0.00012575423
0.00012494168
0.00012412466
0.00012330305
0.00012247674
0.00012164564
0.00012080966
0.00011996872
0.00011912275
0.0001182717
0.00011741551
0.00011655416
0.00011568761
0.00011481587
0.00011393891
0.00011305677
0.00011216944
0.00011127697
0.00011037939
0.00010947674
0.00010856909
0.00010765651
0.00010673905
0.00010581681
0.00010488988
0.00010395833
0.00010302228
0.00010208183
0.00010113709
0.00010018817
9.9235189e-05
9.8278267e-05
9.7317528e-05
9.6353096e-05
9.5385101e-05
9.441367e-05
9.3438933e-05
9.2461021e-05
9.1480063e-05
9.0496191e-05
8.9509533e-05
8.852022e-05
8.7528379e-05
8.6534135e-05
8.5537616e-05
8.4538942e-05
8.3538236e-05
8.2535615e-05
8.1531196e-05
8.0525094e-05
7.9517417e-05
7.8508275e-05
7.7497773e-05
7.6486012e-05
7.5473092e-05
7.4459108e-05
7.3444153e-05
7.2428315e-05
7.1411682e-05
7.0394336e-05
6.9376355e-05
6.8357817e-05
6.7338794e-05
6.6319355e-05
6.5299567e-05
6.4279494e-05
6.3259194e-05
6.2238727e-05
6.1218144e-05
6.0197498e-05
5.9176836e-05
5.8156204e-05
5.7135644e-05
5.6115196e-05
5.5094897e-05
5.4074782e-05
5.3054884e-05
5.2035231e-05
5.1015851e-05
4.9996769e-05
4.8978009e-05
4.7959591e-05
4.6941534e-05
4.5923855e-05
4.4906569e-05
4.3889689e-05
4.2873227e-05
4.1857192e-05
4.0841592e-05
3.9826435e-05
3.8811726e-05
3.7797467e-05
3.6783663e-05
3.5770312e-05
3.4757417e-05
3.3744974e-05
3.2732982e-05
3.1721437e-05
3.0710335e-05
2.9699669e-05
2.8689433e-05
2.767962e-05
2.667022e-05
2.5661226e-05
2.4652625e-05
2.3644408e-05
2.2636562e-05
2.1629076e-05
2.0621934e-05
1.9615124e-05
1.8608631e-05
1.7602439e-05
1.6596532e-05
1.5590893e-05
1.4585507e-05
1.3580355e-05
1.2575422e-05
1.1570692e-05
1.0566149e-05
9.561783e-06
8.5575852e-06
7.5535534e-06
6.549694e-06
5.5460275e-06
4.5425736e-06
3.5392705e-06
2.5364235e-06
1.5370095e-06
5.3492844e-07
0.00012731878
0.00010982515
0.00010398307
0.00010661077
0.00011115432
0.00011676351
0.0001230141
0.00012916104
0.0001347875
0.00013974766
0.00014400666
0.00014758729
0.00015054548
0.00015295306
0.00015488439
0.00015640899
0.00015758852
0.00015847604
0.00015911639
0.00015954712
0.00015979958
0.00015989998
0.00015987033
0.00015972929
0.00015949271
0.00015917421
0.00015878552
0.0001583368
0.00015783684
0.00015729327
0.00015671267
0.00015610076
0.00015546242
0.00015480188
0.00015412274
0.00015342804
0.00015272039
0.00015200198
0.00015127465
0.00015053996
0.00014979918
0.00014905339
0.00014830347
0.00014755015
0.00014679401
0.00014603553
0.00014527508
0.00014451296
0.00014374939
0.00014298452
0.00014221845
0.00014145124
0.00014068292
0.00013991345
0.00013914279
0.00013837086
0.00013759757
0.00013682279
0.00013604639
0.00013526823
0.00013448813
0.00013370593
0.00013292147
0.00013213454
0.00013134498
0.00013055259
0.0001297572
0.00012895861
0.00012815665
0.00012735115
0.00012654194
0.00012572886
0.00012491174
0.00012409046
0.00012326488
0.00012243486
0.0001216003
0.0001207611
0.00011991716
0.0001190684
0.00011821476
0.00011735618
0.00011649262
0.00011562405
0.00011475044
0.00011387178
0.00011298809
0.00011209936
0.00011120563
0.00011030693
0.0001094033
0.00010849478
0.00010758145
0.00010666337
0.00010574062
0.00010481327
0.00010388143
0.00010294517
0.00010200461
0.00010105985
0.00010011099
9.9158158e-05
9.8201464e-05
9.7241028e-05
9.6276972e-05
9.530942e-05
9.4338497e-05
9.336433e-05
9.2387044e-05
9.1406768e-05
9.0423628e-05
8.9437751e-05
8.8449263e-05
8.7458288e-05
8.6464951e-05
8.5469372e-05
8.4471673e-05
8.347197e-05
8.2470381e-05
8.1467019e-05
8.0461994e-05
7.9455416e-05
7.844739e-05
7.7438018e-05
7.6427401e-05
7.5415635e-05
7.4402813e-05
7.3389028e-05
7.2374365e-05
7.1358909e-05
7.0342741e-05
6.9325938e-05
6.8308576e-05
6.7290726e-05
6.6272455e-05
6.525383e-05
6.4234911e-05
6.3215758e-05
6.2196427e-05
6.1176971e-05
6.0157439e-05
5.913788e-05
5.8118337e-05
5.7098853e-05
5.6079466e-05
5.5060213e-05
5.4041128e-05
5.3022243e-05
5.2003587e-05
5.0985187e-05
4.9967068e-05
4.8949252e-05
4.7931761e-05
4.6914613e-05
4.5897824e-05
4.488141e-05
4.3865383e-05
4.2849756e-05
4.1834537e-05
4.0819735e-05
3.9805358e-05
3.8791409e-05
3.7777893e-05
3.6764812e-05
3.5752169e-05
3.4739962e-05
3.372819e-05
3.2716852e-05
3.1705944e-05
3.0695462e-05
2.96854e-05
2.8675752e-05
2.7666511e-05
2.6657669e-05
2.5649216e-05
2.4641144e-05
2.3633442e-05
2.2626098e-05
2.16191e-05
2.0612437e-05
1.9606094e-05
1.8600059e-05
1.7594316e-05
1.6588852e-05
1.5583651e-05
1.45787e-05
1.3573984e-05
1.2569488e-05
1.1565202e-05
1.0561115e-05
9.5572207e-06
8.5535167e-06
7.5500074e-06
6.5467058e-06
5.5436384e-06
4.5408301e-06
3.5382199e-06
2.5361052e-06
1.5375297e-06
5.3665674e-07
0.00011294597
0.00010697535
0.00010367455
0.00010498627
0.0001087622
0.00011385241
0.00011963381
0.00012549957
0.00013105083
0.0001360961
0.0001405577
0.00014442276
0.00014771836
0.00015049189
0.00015279774
0.0001546903
0.00015622046
0.0001574341
0.00015837167
0.00015906847
0.00015955517
0.0001598585
0.00016000177
0.00016000548
0.00015988768
0.00015966435
0.0001593497
0.00015895628
0.00015849524
0.00015797645
0.00015740858
0.00015679924
0.00015615507
0.00015548184
0.00015478451
0.00015406737
0.00015333406
0.00015258767
0.0001518308
0.00015106565
0.00015029403
0.00014951744
0.00014873712
0.00014795406
0.00014716906
0.00014638276
0.00014559562
0.00014480803
0.00014402024
0.00014323242
0.00014244467
0.00014165702
0.00014086947
0.00014008193
0.00013929433
0.00013850652
0.00013771836
0.00013692967
0.00013614025
0.0001353499
0.00013455842
0.00013376557
0.00013297113
0.00013217488
0.00013137659
0.00013057602
0.00012977297
0.00012896721
0.00012815852
0.00012734671
0.00012653158
0.00012571295
0.00012489063
0.00012406446
0.00012323429
0.00012239998
0.0001215614
0.00012071842
0.00011987095
0.0001190189
0.00011816218
0.00011730073
0.0001164345
0.00011556345
0.00011468754
0.00011380677
0.00011292112
0.00011203061
0.00011113525
0.00011023506
0.00010933009
0.00010842038
0.00010750599
0.00010658697