/*--------------------------------*- C++ -*----------------------------------*\
| =========                 |                                                 |
| \\      /  F ield         | OpenFOAM: The Open Source CFD Toolbox           |
|  \\    /   O peration     | Version:  2406                                  |
|   \\  /    A nd           | Website:  www.openfoam.com                      |
|    \\/     M anipulation  |                                                 |
\*---------------------------------------------------------------------------*/
FoamFile
{
    version     2.0;
    format      ascii;
    arch        "LSB;label=32;scalar=64";
    class       volVectorField;
    location    "960";
    object      U;
}
// * * * * * * * * * * * * * * * * * * * * * * * * * * * * * * * * * * * * * //

dimensions      [0 1 -1 0 0 0 0];

internalField   nonuniform List<vector> 
11000
(
(-5.7394875e-05 5.0694843e-05 0)
(-0.00026576428 6.0169318e-05 0)
(-0.00043515851 3.9905328e-05 0)
(-0.00050129634 1.2262528e-05 0)
(-0.00045806592 -9.5835066e-06 0)
(-0.00033893508 -2.3059699e-05 0)
(-0.0001802382 -2.9129856e-05 0)
(-1.025401e-05 -2.9959736e-05 0)
(0.00015246177 -2.7669178e-05 0)
(0.00029753048 -2.3872723e-05 0)
(0.00042041801 -1.9619815e-05 0)
(0.00052030753 -1.5509268e-05 0)
(0.00059850495 -1.183662e-05 0)
(0.0006573646 -8.7120605e-06 0)
(0.00069962701 -6.142214e-06 0)
(0.00072803869 -4.0821031e-06 0)
(0.00074515254 -2.4656849e-06 0)
(0.0007532379 -1.2224969e-06 0)
(0.00075425342 -2.8596766e-07 0)
(0.00074985399 4.0308259e-07 0)
(0.00074141518 8.9510344e-07 0)
(0.00073006525 1.2321508e-06 0)
(0.00071671837 1.4487588e-06 0)
(0.00070210619 1.5729522e-06 0)
(0.0006868067 1.6272664e-06 0)
(0.00067126993 1.6296748e-06 0)
(0.00065584021 1.5943993e-06 0)
(0.00064077543 1.532602e-06 0)
(0.00062626332 1.4529652e-06 0)
(0.00061243523 1.3621736e-06 0)
(0.00059937764 1.265311e-06 0)
(0.00058714173 1.1661849e-06 0)
(0.00057575132 1.0675916e-06 0)
(0.00056520927 9.7153097e-07 0)
(0.00055550283 8.7937981e-07 0)
(0.00054660789 7.9203214e-07 0)
(0.00053849236 7.100115e-07 0)
(0.00053111894 6.3356111e-07 0)
(0.0005244472 5.6271559e-07 0)
(0.00051843528 4.9735807e-07 0)
(0.00051304108 4.372652e-07 0)
(0.00050822327 3.8214256e-07 0)
(0.00050394189 3.3165208e-07 0)
(0.00050015887 2.8543322e-07 0)
(0.00049683827 2.4311899e-07 0)
(0.00049394653 2.0434781e-07 0)
(0.00049145245 1.6877212e-07 0)
(0.00048932723 1.3606429e-07 0)
(0.00048754439 1.0592046e-07 0)
(0.00048607967 7.8062785e-08 0)
(0.00048491088 5.2240318e-08 0)
(0.00048401775 2.8229011e-08 0)
(0.0004833818 5.8309574e-09 0)
(0.00048298615 -1.5126877e-08 0)
(0.00048281534 -3.4794258e-08 0)
(0.00048285523 -5.3299534e-08 0)
(0.00048309281 -7.0751987e-08 0)
(0.00048351608 -8.7243653e-08 0)
(0.00048411392 -1.0285111e-07 0)
(0.000484876 -1.1763746e-07 0)
(0.00048579265 -1.3165419e-07 0)
(0.00048685478 -1.4494296e-07 0)
(0.0004880538 -1.5753711e-07 0)
(0.00048938158 -1.6946305e-07 0)
(0.00049083033 -1.8074156e-07 0)
(0.00049239263 -1.913889e-07 0)
(0.00049406131 -2.0141776e-07 0)
(0.00049582947 -2.1083815e-07 0)
(0.00049769042 -2.1965818e-07 0)
(0.00049963769 -2.2788462e-07 0)
(0.00050166496 -2.3552353e-07 0)
(0.00050376611 -2.4258062e-07 0)
(0.00050593515 -2.4906168e-07 0)
(0.00050816627 -2.5497282e-07 0)
(0.00051045379 -2.6032073e-07 0)
(0.00051279217 -2.6511283e-07 0)
(0.00051517601 -2.6935741e-07 0)
(0.00051760008 -2.7306367e-07 0)
(0.00052005926 -2.7624184e-07 0)
(0.0005225486 -2.7890308e-07 0)
(0.0005250633 -2.8105961e-07 0)
(0.00052759869 -2.8272452e-07 0)
(0.00053015029 -2.8391187e-07 0)
(0.00053271373 -2.8463651e-07 0)
(0.00053528485 -2.849141e-07 0)
(0.00053785963 -2.8476094e-07 0)
(0.00054043421 -2.8419398e-07 0)
(0.00054300491 -2.8323065e-07 0)
(0.00054556821 -2.8188885e-07 0)
(0.00054812075 -2.8018677e-07 0)
(0.00055065936 -2.7814293e-07 0)
(0.00055318104 -2.7577595e-07 0)
(0.00055568293 -2.731046e-07 0)
(0.00055816236 -2.7014761e-07 0)
(0.00056061682 -2.6692369e-07 0)
(0.00056304398 -2.634514e-07 0)
(0.00056544165 -2.5974908e-07 0)
(0.0005678078 -2.5583484e-07 0)
(0.00057014058 -2.5172647e-07 0)
(0.00057243826 -2.4744141e-07 0)
(0.00057469929 -2.429967e-07 0)
(0.00057692224 -2.3840892e-07 0)
(0.00057910584 -2.3369417e-07 0)
(0.00058124895 -2.2886805e-07 0)
(0.00058335057 -2.2394562e-07 0)
(0.0005854098 -2.1894136e-07 0)
(0.0005874259 -2.1386924e-07 0)
(0.00058939822 -2.0874258e-07 0)
(0.00059132625 -2.0357413e-07 0)
(0.00059320955 -1.98376e-07 0)
(0.00059504782 -1.9315975e-07 0)
(0.00059684085 -1.8793627e-07 0)
(0.00059858849 -1.8271591e-07 0)
(0.00060029073 -1.7750838e-07 0)
(0.0006019476 -1.723228e-07 0)
(0.00060355923 -1.6716767e-07 0)
(0.00060512582 -1.6205099e-07 0)
(0.00060664764 -1.5698011e-07 0)
(0.00060812502 -1.5196194e-07 0)
(0.00060955835 -1.4700276e-07 0)
(0.00061094807 -1.4210841e-07 0)
(0.00061229468 -1.3728418e-07 0)
(0.00061359873 -1.3253488e-07 0)
(0.0006148608 -1.2786482e-07 0)
(0.00061608152 -1.2327792e-07 0)
(0.00061726155 -1.1877764e-07 0)
(0.00061840157 -1.1436709e-07 0)
(0.00061950232 -1.1004893e-07 0)
(0.00062056454 -1.0582547e-07 0)
(0.000621589 -1.0169863e-07 0)
(0.00062257648 -9.7670053e-08 0)
(0.0006235278 -9.374102e-08 0)
(0.00062444376 -8.9912597e-08 0)
(0.0006253252 -8.6185495e-08 0)
(0.00062617295 -8.2560196e-08 0)
(0.00062698786 -7.9036886e-08 0)
(0.00062777079 -7.5615606e-08 0)
(0.00062852257 -7.2296072e-08 0)
(0.00062924407 -6.9077997e-08 0)
(0.00062993614 -6.5960742e-08 0)
(0.00063059962 -6.2943638e-08 0)
(0.00063123537 -6.0025764e-08 0)
(0.00063184421 -5.7206068e-08 0)
(0.000632427 -5.4483348e-08 0)
(0.00063298455 -5.1856366e-08 0)
(0.00063351768 -4.9323711e-08 0)
(0.0006340272 -4.688401e-08 0)
(0.0006345139 -4.4535702e-08 0)
(0.00063497859 -4.2277178e-08 0)
(0.00063542202 -4.0106728e-08 0)
(0.00063584496 -3.8022677e-08 0)
(0.00063624817 -3.6023225e-08 0)
(0.00063663238 -3.4106681e-08 0)
(0.00063699831 -3.2271217e-08 0)
(0.00063734668 -3.0514979e-08 0)
(0.00063767817 -2.8836151e-08 0)
(0.00063799346 -2.7232817e-08 0)
(0.00063829323 -2.570318e-08 0)
(0.00063857812 -2.4245355e-08 0)
(0.00063884877 -2.2857567e-08 0)
(0.00063910581 -2.1537969e-08 0)
(0.00063934983 -2.0284815e-08 0)
(0.00063958144 -1.9096312e-08 0)
(0.00063980121 -1.7970693e-08 0)
(0.00064000971 -1.6906349e-08 0)
(0.00064020748 -1.5901569e-08 0)
(0.00064039507 -1.4954897e-08 0)
(0.000640573 -1.4064739e-08 0)
(0.00064074178 -1.3229563e-08 0)
(0.0006409019 -1.2447854e-08 0)
(0.00064105387 -1.171828e-08 0)
(0.00064119814 -1.1039475e-08 0)
(0.00064133519 -1.0410358e-08 0)
(0.00064146547 -9.8297817e-09 0)
(0.00064158943 -9.2966249e-09 0)
(0.0006417075 -8.810008e-09 0)
(0.0006418201 -8.3689837e-09 0)
(0.00064192767 -7.9729674e-09 0)
(0.00064203061 -7.6213833e-09 0)
(0.00064212935 -7.3139218e-09 0)
(0.00064222429 -7.0506729e-09 0)
(0.00064231584 -6.8319212e-09 0)
(0.00064240443 -6.6587138e-09 0)
(0.00064249048 -6.5325621e-09 0)
(0.00064257443 -6.4559553e-09 0)
(0.00064265675 -6.4329209e-09 0)
(0.00064273795 -6.4700005e-09 0)
(0.00064281859 -6.5774196e-09 0)
(0.00064289932 -6.7718805e-09 0)
(0.00064298091 -7.0800804e-09 0)
(0.00064306435 -7.5459583e-09 0)
(0.00064315088 -8.2435073e-09 0)
(0.00064324222 -9.2992098e-09 0)
(0.00064334079 -1.0932286e-08 0)
(0.00064345017 -1.3546806e-08 0)
(0.00064357571 -1.793139e-08 0)
(0.00064372443 -2.5212544e-08 0)
(0.00064390768 -3.6022368e-08 0)
(0.00064417509 -5.9687353e-08 0)
(0.00064456245 -1.3152065e-07 0)
(-0.00010599709 0.00027561394 0)
(-0.0005025098 0.00035479635 0)
(-0.00074892023 0.00020665539 0)
(-0.00077094586 6.0195446e-06 0)
(-0.00058500615 -0.00015797052 0)
(-0.00026370528 -0.00025947813 0)
(0.00012193956 -0.00030365824 0)
(0.00051858576 -0.00030618788 0)
(0.00089186225 -0.00028296568 0)
(0.0012226358 -0.00024644073 0)
(0.0015025972 -0.00020510577 0)
(0.0017304084 -0.00016416949 0)
(0.0019088306 -0.00012648942 0)
(0.002042769 -9.3385888e-05 0)
(0.0021380231 -6.5244952e-05 0)
(0.0022005303 -4.1925501e-05 0)
(0.0022359376 -2.3017235e-05 0)
(0.0022493812 -7.9958676e-06 0)
(0.0022453937 3.687963e-06 0)
(0.0022278874 1.2561067e-05 0)
(0.0022001808 1.9102504e-05 0)
(0.0021650486 2.3734956e-05 0)
(0.0021247794 2.682384e-05 0)
(0.0020812368 2.868036e-05 0)
(0.0020359173 2.9566399e-05 0)
(0.0019900049 2.9700109e-05 0)
(0.0019444205 2.9261529e-05 0)
(0.0018998652 2.8397921e-05 0)
(0.001856859 2.7228647e-05 0)
(0.0018157734 2.5849518e-05 0)
(0.0017768601 2.4336631e-05 0)
(0.001740275 2.2749681e-05 0)
(0.0017060981 2.1134824e-05 0)
(0.001674351 1.9527112e-05 0)
(0.0016450099 1.7952554e-05 0)
(0.0016180182 1.6429864e-05 0)
(0.0015932949 1.4971907e-05 0)
(0.0015707428 1.3586922e-05 0)
(0.001550254 1.2279526e-05 0)
(0.0015317149 1.1051542e-05 0)
(0.0015150099 9.9026815e-06 0)
(0.0015000239 8.8310988e-06 0)
(0.0014866447 7.8338379e-06 0)
(0.0014747644 6.9071917e-06 0)
(0.00146428 6.0469863e-06 0)
(0.0014550946 5.2488037e-06 0)
(0.0014471174 4.5081531e-06 0)
(0.0014402639 3.8206e-06 0)
(0.0014344558 3.1818612e-06 0)
(0.0014296206 2.587871e-06 0)
(0.0014256919 2.0348259e-06 0)
(0.0014226084 1.5192103e-06 0)
(0.0014203136 1.0378095e-06 0)
(0.001418756 5.8771041e-07 0)
(0.0014178879 1.6629516e-07 0)
(0.0014176654 -2.2877182e-07 0)
(0.0014180482 -5.9956249e-07 0)
(0.0014189987 -9.4790394e-07 0)
(0.0014204821 -1.2753988e-06 0)
(0.0014224661 -1.5834468e-06 0)
(0.0014249202 -1.8732662e-06 0)
(0.0014278161 -2.1459158e-06 0)
(0.0014311267 -2.4023142e-06 0)
(0.0014348266 -2.6432589e-06 0)
(0.0014388916 -2.8694429e-06 0)
(0.0014432985 -3.0814714e-06 0)
(0.0014480253 -3.279875e-06 0)
(0.0014530505 -3.4651234e-06 0)
(0.0014583538 -3.6376361e-06 0)
(0.0014639152 -3.797793e-06 0)
(0.0014697157 -3.9459426e-06 0)
(0.0014757367 -4.0824095e-06 0)
(0.0014819601 -4.2075011e-06 0)
(0.0014883685 -4.3215124e-06 0)
(0.001494945 -4.4247311e-06 0)
(0.0015016731 -4.5174402e-06 0)
(0.0015085368 -4.5999219e-06 0)
(0.0015155206 -4.6724589e-06 0)
(0.0015226095 -4.7353366e-06 0)
(0.0015297889 -4.7888441e-06 0)
(0.0015370448 -4.8332748e-06 0)
(0.0015443635 -4.868927e-06 0)
(0.0015517319 -4.8961037e-06 0)
(0.0015591375 -4.915113e-06 0)
(0.001566568 -4.9262669e-06 0)
(0.0015740118 -4.9298817e-06 0)
(0.0015814578 -4.9262766e-06 0)
(0.0015888952 -4.9157735e-06 0)
(0.0015963139 -4.8986959e-06 0)
(0.0016037042 -4.8753683e-06 0)
(0.001611057 -4.8461152e-06 0)
(0.0016183635 -4.8112602e-06 0)
(0.0016256155 -4.7711251e-06 0)
(0.0016328053 -4.7260295e-06 0)
(0.0016399256 -4.6762893e-06 0)
(0.0016469698 -4.6222165e-06 0)
(0.0016539314 -4.5641181e-06 0)
(0.0016608046 -4.5022958e-06 0)
(0.0016675839 -4.4370448e-06 0)
(0.0016742645 -4.3686539e-06 0)
(0.0016808418 -4.2974044e-06 0)
(0.0016873116 -4.2235702e-06 0)
(0.0016936702 -4.1474167e-06 0)
(0.0016999142 -4.069201e-06 0)
(0.0017060407 -3.9891714e-06 0)
(0.0017120471 -3.9075671e-06 0)
(0.0017179311 -3.8246182e-06 0)
(0.0017236907 -3.7405453e-06 0)
(0.0017293245 -3.6555595e-06 0)
(0.0017348311 -3.5698622e-06 0)
(0.0017402094 -3.4836454e-06 0)
(0.0017454588 -3.3970915e-06 0)
(0.0017505789 -3.3103734e-06 0)
(0.0017555694 -3.2236544e-06 0)
(0.0017604303 -3.1370885e-06 0)
(0.001765162 -3.0508206e-06 0)
(0.0017697648 -2.9649865e-06 0)
(0.0017742394 -2.879713e-06 0)
(0.0017785868 -2.7951186e-06 0)
(0.0017828079 -2.7113131e-06 0)
(0.0017869039 -2.6283982e-06 0)
(0.0017908761 -2.5464676e-06 0)
(0.001794726 -2.4656072e-06 0)
(0.0017984552 -2.3858957e-06 0)
(0.0018020654 -2.3074044e-06 0)
(0.0018055584 -2.2301979e-06 0)
(0.001808936 -2.1543341e-06 0)
(0.0018122004 -2.0798647e-06 0)
(0.0018153535 -2.0068353e-06 0)
(0.0018183975 -1.9352858e-06 0)
(0.0018213346 -1.8652504e-06 0)
(0.001824167 -1.7967584e-06 0)
(0.001826897 -1.7298341e-06 0)
(0.0018295268 -1.6644973e-06 0)
(0.0018320589 -1.6007631e-06 0)
(0.0018344957 -1.5386428e-06 0)
(0.0018368394 -1.4781437e-06 0)
(0.0018390925 -1.4192694e-06 0)
(0.0018412574 -1.3620204e-06 0)
(0.0018433365 -1.3063941e-06 0)
(0.0018453322 -1.2523848e-06 0)
(0.0018472469 -1.1999841e-06 0)
(0.0018490829 -1.1491813e-06 0)
(0.0018508426 -1.0999633e-06 0)
(0.0018525285 -1.0523148e-06 0)
(0.0018541427 -1.0062189e-06 0)
(0.0018556876 -9.6165698e-07 0)
(0.0018571655 -9.1860883e-07 0)
(0.0018585785 -8.7705283e-07 0)
(0.001859929 -8.3696612e-07 0)
(0.0018612191 -7.9832486e-07 0)
(0.0018624509 -7.6110427e-07 0)
(0.0018636266 -7.2527893e-07 0)
(0.0018647482 -6.9082265e-07 0)
(0.0018658177 -6.5770869e-07 0)
(0.0018668372 -6.2590987e-07 0)
(0.0018678085 -5.9539867e-07 0)
(0.0018687337 -5.6614743e-07 0)
(0.0018696146 -5.3812835e-07 0)
(0.001870453 -5.113137e-07 0)
(0.0018712507 -4.8567574e-07 0)
(0.0018720095 -4.6118698e-07 0)
(0.001872731 -4.378201e-07 0)
(0.001873417 -4.155481e-07 0)
(0.0018740691 -3.9434451e-07 0)
(0.0018746889 -3.7418329e-07 0)
(0.001875278 -3.5503915e-07 0)
(0.0018758378 -3.3688726e-07 0)
(0.0018763698 -3.1970344e-07 0)
(0.0018768756 -3.0346427e-07 0)
(0.0018773564 -2.8814738e-07 0)
(0.0018778138 -2.737314e-07 0)
(0.001878249 -2.6019642e-07 0)
(0.0018786633 -2.4752358e-07 0)
(0.0018790582 -2.356955e-07 0)
(0.0018794347 -2.2469653e-07 0)
(0.0018797943 -2.1451288e-07 0)
(0.0018801381 -2.0513344e-07 0)
(0.0018804673 -1.9654979e-07 0)
(0.0018807831 -1.8875726e-07 0)
(0.0018810868 -1.8175593e-07 0)
(0.0018813795 -1.7555177e-07 0)
(0.0018816625 -1.7015892e-07 0)
(0.0018819369 -1.65602e-07 0)
(0.0018822042 -1.6192037e-07 0)
(0.0018824655 -1.5917441e-07 0)
(0.0018827225 -1.57455e-07 0)
(0.0018829766 -1.5689735e-07 0)
(0.0018832297 -1.5770234e-07 0)
(0.0018834839 -1.6016861e-07 0)
(0.0018837417 -1.6474193e-07 0)
(0.0018840063 -1.720941e-07 0)
(0.0018842818 -1.8324303e-07 0)
(0.0018845733 -1.997444e-07 0)
(0.001884888 -2.2398402e-07 0)
(0.0018852349 -2.5957683e-07 0)
(0.001885624 -3.1176262e-07 0)
(0.0018860682 -3.8798965e-07 0)
(0.0018866247 -4.9853099e-07 0)
(0.0018873114 -6.3179463e-07 0)
(-0.00013201143 0.00058659185 0)
(-0.00053781226 0.00066861764 0)
(-0.00062603439 0.00028798109 0)
(-0.00042246525 -0.00015385522 0)
(-7.2478722e-06 -0.00049107507 0)
(0.00051841081 -0.00068645587 0)
(0.00107575 -0.00075973624 0)
(0.001613119 -0.00074705873 0)
(0.0021004517 -0.0006822718 0)
(0.00252278 -0.00059106834 0)
(0.0028750439 -0.00049082073 0)
(0.0031583462 -0.00039225063 0)
(0.0033773773 -0.00030134938 0)
(0.0035387086 -0.00022098817 0)
(0.0036496902 -0.00015209946 0)
(0.0037177591 -9.4481041e-05 0)
(0.0037500219 -4.73167e-05 0)
(0.0037530195 -9.5001232e-06 0)
(0.0037326106 2.017055e-05 0)
(0.003693933 4.2881194e-05 0)
(0.003641417 5.973665e-05 0)
(0.0035788251 7.173409e-05 0)
(0.0035093069 7.9753348e-05 0)
(0.0034354628 8.4557731e-05 0)
(0.0033594079 8.6800559e-05 0)
(0.0032828362 8.7034618e-05 0)
(0.0032070801 8.5722789e-05 0)
(0.0031331652 8.3248858e-05 0)
(0.0030618598 7.9927926e-05 0)
(0.002993719 7.6016072e-05 0)
(0.0029291226 7.1719142e-05 0)
(0.0028683088 6.7200578e-05 0)
(0.0028114026 6.2588327e-05 0)
(0.0027584399 5.7980847e-05 0)
(0.0027093875 5.3452301e-05 0)
(0.0026641605 4.9057002e-05 0)
(0.002622636 4.4833192e-05 0)
(0.0025846643 4.0806238e-05 0)
(0.0025500783 3.6991309e-05 0)
(0.0025187007 3.3395616e-05 0)
(0.0024903499 3.0020263e-05 0)
(0.002464844 2.6861772e-05 0)
(0.0024420046 2.3913327e-05 0)
(0.0024216591 2.1165784e-05 0)
(0.0024036421 1.8608471e-05 0)
(0.0023877968 1.6229836e-05 0)
(0.0023739758 1.4017937e-05 0)
(0.002362041 1.1960825e-05 0)
(0.0023518635 1.0046831e-05 0)
(0.0023433241 8.2647689e-06 0)
(0.0023363122 6.604078e-06 0)
(0.0023307256 5.0549136e-06 0)
(0.0023264698 3.6081964e-06 0)
(0.002323458 2.2556304e-06 0)
(0.0023216095 9.8969656e-07 0)
(0.0023208501 -1.963727e-07 0)
(0.0023211108 -1.308633e-06 0)
(0.0023223278 -2.3524753e-06 0)
(0.0023244416 -3.3326762e-06 0)
(0.0023273965 -4.2534509e-06 0)
(0.0023311407 -5.1185097e-06 0)
(0.0023356252 -5.9311129e-06 0)
(0.0023408041 -6.6941237e-06 0)
(0.0023466336 -7.4100571e-06 0)
(0.0023530724 -8.0811265e-06 0)
(0.002360081 -8.7092863e-06 0)
(0.0023676218 -9.2962706e-06 0)
(0.0023756586 -9.8436289e-06 0)
(0.0023841568 -1.0352757e-05 0)
(0.002393083 -1.0824925e-05 0)
(0.002402405 -1.1261301e-05 0)
(0.0024120917 -1.1662975e-05 0)
(0.0024221131 -1.2030973e-05 0)
(0.0024324401 -1.2366275e-05 0)
(0.0024430446 -1.2669826e-05 0)
(0.0024538993 -1.2942549e-05 0)
(0.002464978 -1.3185353e-05 0)
(0.0024762551 -1.3399137e-05 0)
(0.002487706 -1.3584799e-05 0)
(0.0024993068 -1.3743238e-05 0)
(0.0025110346 -1.3875356e-05 0)
(0.0025228672 -1.3982062e-05 0)
(0.0025347833 -1.406427e-05 0)
(0.0025467622 -1.4122903e-05 0)
(0.0025587845 -1.4158888e-05 0)
(0.002570831 -1.4173159e-05 0)
(0.0025828839 -1.4166654e-05 0)
(0.0025949257 -1.4140312e-05 0)
(0.0026069402 -1.4095073e-05 0)
(0.0026189116 -1.4031879e-05 0)
(0.0026308252 -1.3951666e-05 0)
(0.0026426668 -1.3855365e-05 0)
(0.0026544233 -1.37439e-05 0)
(0.0026660822 -1.3618185e-05 0)
(0.0026776318 -1.3479126e-05 0)
(0.0026890612 -1.3327611e-05 0)
(0.0027003602 -1.3164515e-05 0)
(0.0027115193 -1.2990698e-05 0)
(0.0027225298 -1.2807e-05 0)
(0.0027333836 -1.261424e-05 0)
(0.0027440734 -1.2413218e-05 0)
(0.0027545924 -1.220471e-05 0)
(0.0027649346 -1.1989471e-05 0)
(0.0027750945 -1.176823e-05 0)
(0.0027850673 -1.1541691e-05 0)
(0.0027948487 -1.1310533e-05 0)
(0.0028044349 -1.1075408e-05 0)
(0.0028138229 -1.0836943e-05 0)
(0.0028230098 -1.0595738e-05 0)
(0.0028319936 -1.0352364e-05 0)
(0.0028407726 -1.0107367e-05 0)
(0.0028493454 -9.8612666e-06 0)
(0.0028577112 -9.614554e-06 0)
(0.0028658697 -9.3676949e-06 0)
(0.0028738206 -9.1211285e-06 0)
(0.0028815644 -8.8752683e-06 0)
(0.0028891016 -8.6305026e-06 0)
(0.0028964333 -8.3871946e-06 0)
(0.0029035606 -8.1456834e-06 0)
(0.0029104851 -7.9062846e-06 0)
(0.0029172085 -7.6692906e-06 0)
(0.0029237329 -7.4349713e-06 0)
(0.0029300606 -7.2035752e-06 0)
(0.0029361939 -6.9753298e-06 0)
(0.0029421355 -6.7504424e-06 0)
(0.0029478883 -6.5291011e-06 0)
(0.002953455 -6.3114754e-06 0)
(0.0029588389 -6.0977168e-06 0)
(0.0029640432 -5.8879598e-06 0)
(0.0029690711 -5.6823228e-06 0)
(0.0029739261 -5.4809086e-06 0)
(0.0029786118 -5.2838054e-06 0)
(0.0029831316 -5.0910873e-06 0)
(0.0029874892 -4.9028155e-06 0)
(0.0029916884 -4.7190385e-06 0)
(0.0029957328 -4.5397931e-06 0)
(0.0029996262 -4.3651052e-06 0)
(0.0030033724 -4.1949904e-06 0)
(0.0030069752 -4.0294547e-06 0)
(0.0030104384 -3.8684952e-06 0)
(0.0030137658 -3.7121007e-06 0)
(0.0030169612 -3.5602519e-06 0)
(0.0030200283 -3.4129226e-06 0)
(0.003022971 -3.27008e-06 0)
(0.0030257929 -3.131685e-06 0)
(0.0030284978 -2.9976937e-06 0)
(0.0030310893 -2.8680567e-06 0)
(0.003033571 -2.7427204e-06 0)
(0.0030359466 -2.6216269e-06 0)
(0.0030382195 -2.5047147e-06 0)
(0.0030403932 -2.3919193e-06 0)
(0.0030424712 -2.2831735e-06 0)
(0.0030444569 -2.1784076e-06 0)
(0.0030463536 -2.07755e-06 0)
(0.0030481644 -1.9805274e-06 0)
(0.0030498928 -1.8872648e-06 0)
(0.0030515417 -1.7976865e-06 0)
(0.0030531142 -1.7117158e-06 0)
(0.0030546134 -1.629276e-06 0)
(0.0030560423 -1.5502897e-06 0)
(0.0030574037 -1.47468e-06 0)
(0.0030587004 -1.4023701e-06 0)
(0.0030599353 -1.3332837e-06 0)
(0.003061111 -1.2673454e-06 0)
(0.0030622302 -1.2044809e-06 0)
(0.0030632954 -1.1446173e-06 0)
(0.0030643091 -1.087683e-06 0)
(0.003065274 -1.0336082e-06 0)
(0.0030661922 -9.8232464e-07 0)
(0.0030670662 -9.3376645e-07 0)
(0.0030678983 -8.8787026e-07 0)
(0.0030686908 -8.4457576e-07 0)
(0.0030694458 -8.0382586e-07 0)
(0.0030701654 -7.6556696e-07 0)
(0.0030708518 -7.2974952e-07 0)
(0.003071507 -6.9632862e-07 0)
(0.0030721331 -6.6526511e-07 0)
(0.0030727321 -6.3652656e-07 0)
(0.0030733059 -6.1008866e-07 0)
(0.0030738565 -5.8593725e-07 0)
(0.0030743858 -5.6407101e-07 0)
(0.0030748958 -5.4450523e-07 0)
(0.0030753884 -5.2727659e-07 0)
(0.0030758657 -5.1245034e-07 0)
(0.0030763297 -5.0013051e-07 0)
(0.0030767825 -4.9047509e-07 0)
(0.0030772264 -4.8371789e-07 0)
(0.0030776639 -4.8019978e-07 0)
(0.0030780978 -4.8041328e-07 0)
(0.0030785311 -4.8506671e-07 0)
(0.0030789675 -4.95176e-07 0)
(0.0030794113 -5.1219276e-07 0)
(0.0030798677 -5.3817781e-07 0)
(0.0030803432 -5.7602031e-07 0)
(0.0030808452 -6.2967555e-07 0)
(0.0030813828 -7.0427715e-07 0)
(0.0030819633 -8.0567982e-07 0)
(0.0030825919 -9.3893813e-07 0)
(0.0030833171 -1.1041303e-06 0)
(0.0030841675 -1.267925e-06 0)
(-0.00013999333 0.0009340692 0)
(-0.00035980392 0.0008284108 0)
(-2.9437515e-05 9.5004571e-05 0)
(0.00058501286 -0.00059376296 0)
(0.0013065746 -0.0010573172 0)
(0.0020300193 -0.0012891864 0)
(0.002700526 -0.0013417179 0)
(0.0032937573 -0.0012762335 0)
(0.0038017767 -0.0011431465 0)
(0.0042246136 -0.00097834588 0)
(0.0045662674 -0.00080531794 0)
(0.0048328401 -0.00063834333 0)
(0.0050315405 -0.00048535841 0)
(0.0051700836 -0.00035014612 0)
(0.0052562875 -0.00023388395 0)
(0.0052977837 -0.00013618821 0)
(0.0053018092 -5.5797489e-05 0)
(0.0052750638 8.9916323e-06 0)
(0.0052236197 6.0055358e-05 0)
(0.0051528849 9.9267224e-05 0)
(0.0050675989 0.00012840486 0)
(0.0049718505 0.00014910002 0)
(0.0048691137 0.00016281572 0)
(0.0047622955 0.00017084034 0)
(0.0046537902 0.00017429197 0)
(0.0045455361 0.00017412884 0)
(0.0044390723 0.00017116285 0)
(0.0043355928 0.00016607461 0)
(0.0042359973 0.00015942866 0)
(0.0041409378 0.00015168824 0)
(0.0040508601 0.00014322913 0)
(0.0039660409 0.00013435238 0)
(0.0038866202 0.00012529572 0)
(0.0038126292 0.00011624373 0)
(0.0037440142 0.00010733677 0)
(0.0036806567 9.8678739e-05 0)
(0.0036223903 9.0343737e-05 0)
(0.0035690144 8.2381805e-05 0)
(0.0035203059 7.4823758e-05 0)
(0.0034760282 6.7685276e-05 0)
(0.0034359384 6.0970314e-05 0)
(0.0033997928 5.4673933e-05 0)
(0.0033673518 4.8784633e-05 0)
(0.0033383825 4.3286251e-05 0)
(0.0033126611 3.8159499e-05 0)
(0.0032899748 3.3383179e-05 0)
(0.0032701223 2.8935154e-05 0)
(0.0032529143 2.4793084e-05 0)
(0.0032381739 2.0934994e-05 0)
(0.0032257362 1.7339679e-05 0)
(0.0032154477 1.3987e-05 0)
(0.0032071661 1.0858073e-05 0)
(0.0032007595 7.9353824e-06 0)
(0.0031961055 5.2028291e-06 0)
(0.0031930909 2.6457367e-06 0)
(0.0031916105 2.5081585e-07 0)
(0.0031915666 -1.9938973e-06 0)
(0.0031928684 -4.0991244e-06 0)
(0.0031954311 -6.0744305e-06 0)
(0.0031991757 -7.9283174e-06 0)
(0.0032040277 -9.6683245e-06 0)
(0.0032099174 -1.1301129e-05 0)
(0.0032167791 -1.2832639e-05 0)
(0.0032245504 -1.4268089e-05 0)
(0.0032331724 -1.561212e-05 0)
(0.0032425889 -1.6868863e-05 0)
(0.0032527464 -1.804201e-05 0)
(0.0032635936 -1.9134879e-05 0)
(0.0032750816 -2.0150478e-05 0)
(0.0032871632 -2.1091552e-05 0)
(0.0032997931 -2.1960635e-05 0)
(0.0033129278 -2.2760086e-05 0)
(0.0033265253 -2.3492128e-05 0)
(0.0033405449 -2.4158873e-05 0)
(0.0033549477 -2.4762354e-05 0)
(0.0033696957 -2.530454e-05 0)
(0.0033847526 -2.5787358e-05 0)
(0.0034000832 -2.62127e-05 0)
(0.0034156534 -2.6582444e-05 0)
(0.0034314308 -2.6898454e-05 0)
(0.0034473836 -2.7162588e-05 0)
(0.0034634815 -2.7376705e-05 0)
(0.0034796955 -2.7542666e-05 0)
(0.0034959975 -2.7662333e-05 0)
(0.0035123607 -2.7737572e-05 0)
(0.0035287594 -2.777025e-05 0)
(0.0035451691 -2.7762236e-05 0)
(0.0035615664 -2.7715395e-05 0)
(0.0035779289 -2.7631587e-05 0)
(0.0035942356 -2.7512666e-05 0)
(0.0036104663 -2.7360474e-05 0)
(0.003626602 -2.7176838e-05 0)
(0.0036426249 -2.6963566e-05 0)
(0.0036585181 -2.6722445e-05 0)
(0.0036742658 -2.645524e-05 0)
(0.0036898532 -2.6163682e-05 0)
(0.0037052665 -2.5849477e-05 0)
(0.003720493 -2.551429e-05 0)
(0.0037355207 -2.5159755e-05 0)
(0.0037503389 -2.4787464e-05 0)
(0.0037649375 -2.4398965e-05 0)
(0.0037793073 -2.3995765e-05 0)
(0.0037934402 -2.3579324e-05 0)
(0.0038073287 -2.3151056e-05 0)
(0.0038209663 -2.2712324e-05 0)
(0.003834347 -2.2264444e-05 0)
(0.0038474657 -2.180868e-05 0)
(0.0038603182 -2.1346245e-05 0)
(0.0038729006 -2.0878299e-05 0)
(0.0038852099 -2.0405953e-05 0)
(0.0038972438 -1.9930265e-05 0)
(0.0039090004 -1.9452239e-05 0)
(0.0039204784 -1.8972833e-05 0)
(0.0039316772 -1.8492948e-05 0)
(0.0039425964 -1.8013438e-05 0)
(0.0039532365 -1.7535108e-05 0)
(0.0039635981 -1.7058713e-05 0)
(0.0039736824 -1.6584961e-05 0)
(0.0039834909 -1.6114513e-05 0)
(0.0039930256 -1.5647984e-05 0)
(0.0040022886 -1.5185946e-05 0)
(0.0040112828 -1.4728929e-05 0)
(0.0040200108 -1.4277418e-05 0)
(0.0040284759 -1.383186e-05 0)
(0.0040366815 -1.3392664e-05 0)
(0.0040446312 -1.2960201e-05 0)
(0.004052329 -1.2534805e-05 0)
(0.0040597788 -1.2116777e-05 0)
(0.0040669849 -1.1706385e-05 0)
(0.0040739517 -1.1303864e-05 0)
(0.0040806836 -1.0909423e-05 0)
(0.0040871853 -1.0523238e-05 0)
(0.0040934615 -1.0145461e-05 0)
(0.0040995171 -9.7762175e-06 0)
(0.0041053568 -9.4156087e-06 0)
(0.0041109858 -9.0637133e-06 0)
(0.0041164089 -8.7205886e-06 0)
(0.0041216312 -8.386272e-06 0)
(0.0041266577 -8.060782e-06 0)
(0.0041314935 -7.7441196e-06 0)
(0.0041361437 -7.4362697e-06 0)
(0.0041406133 -7.1372015e-06 0)
(0.0041449074 -6.8468706e-06 0)
(0.004149031 -6.5652195e-06 0)
(0.004152989 -6.2921789e-06 0)
(0.0041567865 -6.0276689e-06 0)
(0.0041604283 -5.7715994e-06 0)
(0.0041639193 -5.5238718e-06 0)
(0.0041672643 -5.284379e-06 0)
(0.004170468 -5.0530067e-06 0)
(0.0041735352 -4.8296346e-06 0)
(0.0041764704 -4.6141367e-06 0)
(0.0041792783 -4.4063822e-06 0)
(0.0041819631 -4.206236e-06 0)
(0.0041845295 -4.0135595e-06 0)
(0.0041869816 -3.8282112e-06 0)
(0.0041893237 -3.6500474e-06 0)
(0.00419156 -3.4789228e-06 0)
(0.0041936946 -3.3146909e-06 0)
(0.0041957315 -3.1572047e-06 0)
(0.0041976745 -3.0063172e-06 0)
(0.0041995275 -2.8618817e-06 0)
(0.0042012943 -2.7237521e-06 0)
(0.0042029785 -2.5917841e-06 0)
(0.0042045837 -2.4658349e-06 0)
(0.0042061134 -2.3457642e-06 0)
(0.0042075711 -2.2314344e-06 0)
(0.00420896 -2.1227107e-06 0)
(0.0042102835 -2.0194615e-06 0)
(0.0042115448 -1.9215596e-06 0)
(0.004212747 -1.8288825e-06 0)
(0.004213893 -1.7413132e-06 0)
(0.004214986 -1.6587404e-06 0)
(0.0042160289 -1.5810598e-06 0)
(0.0042170244 -1.5081744e-06 0)
(0.0042179755 -1.4399964e-06 0)
(0.0042188849 -1.3764484e-06 0)
(0.0042197553 -1.3174658e-06 0)
(0.0042205893 -1.2629991e-06 0)
(0.0042213897 -1.2130177e-06 0)
(0.0042221591 -1.1675144e-06 0)
(0.0042229001 -1.1265124e-06 0)
(0.0042236154 -1.0900734e-06 0)
(0.0042243076 -1.0583098e-06 0)
(0.0042249794 -1.0314023e-06 0)
(0.0042256338 -1.0096238e-06 0)
(0.0042262737 -9.9337403e-07 0)
(0.0042269022 -9.8322601e-07 0)
(0.0042275228 -9.7999056e-07 0)
(0.0042281393 -9.8480349e-07 0)
(0.0042287559 -9.9924026e-07 0)
(0.0042293774 -1.0254592e-06 0)
(0.0042300094 -1.0663615e-06 0)
(0.004230658 -1.1257286e-06 0)
(0.00423133 -1.2082298e-06 0)
(0.0042320323 -1.3190301e-06 0)
(0.0042327686 -1.4623708e-06 0)
(0.0042335378 -1.6382354e-06 0)
(0.004234385 -1.8354127e-06 0)
(0.0042353633 -2.0080814e-06 0)
(-0.0001146891 0.001267444 0)
(0.0002330748 0.00057097899 0)
(0.0013193392 -0.0006036781 0)
(0.0024950864 -0.0014281381 0)
(0.0035169822 -0.0018685724 0)
(0.004356459 -0.0020140572 0)
(0.0050310566 -0.001962789 0)
(0.005567493 -0.0017953104 0)
(0.0059907469 -0.0015682522 0)
(0.0063199979 -0.0013186314 0)
(0.0065693302 -0.0010696131 0)
(0.0067495142 -0.00083496363 0)
(0.0068693741 -0.00062220301 0)
(0.0069366351 -0.00043477946 0)
(0.006958379 -0.00027354279 0)
(0.0069412404 -0.0001377343 0)
(0.0068914561 -2.5648034e-05 0)
(0.0068148392 6.4934342e-05 0)
(0.0067167381 0.00013644769 0)
(0.0066020123 0.00019134467 0)
(0.0064750014 0.00023198728 0)
(0.0063395175 0.0002605776 0)
(0.0061988532 0.00027912011 0)
(0.0060558043 0.00028940544 0)
(0.0059127026 0.00029300842 0)
(0.0057714555 0.00029129541 0)
(0.0056335891 0.00028543737 0)
(0.0055002925 0.00027642622 0)
(0.0053724623 0.0002650927 0)
(0.0052507438 0.00025212463 0)
(0.0051355705 0.00023808464 0)
(0.0050271997 0.00022342703 0)
(0.0049257444 0.00020851324 0)
(0.0048312016 0.00019362597 0)
(0.004743477 0.00017898174 0)
(0.0046624056 0.00016474205 0)
(0.0045877705 0.00015102308 0)
(0.004519317 0.0001379041 0)
(0.0044567655 0.00012543466 0)
(0.0043998217 0.00011364075 0)
(0.0043481842 0.00010252999 0)
(0.0043015514 9.2095888e-05 0)
(0.0042596261 8.2321499e-05 0)
(0.0042221193 7.3182326e-05 0)
(0.004188753 6.4648732e-05 0)
(0.0041592617 5.6687853e-05 0)
(0.0041333938 4.926513e-05 0)
(0.004110912 4.2345482e-05 0)
(0.0040915936 3.5894223e-05 0)
(0.0040752302 2.9877723e-05 0)
(0.0040616275 2.4263889e-05 0)
(0.0040506044 1.9022492e-05 0)
(0.0040419925 1.4125361e-05 0)
(0.004035635 9.546484e-06 0)
(0.0040313865 5.2620311e-06 0)
(0.0040291114 1.2503161e-06 0)
(0.0040286834 -2.5082859e-06 0)
(0.004029985 -6.0314579e-06 0)
(0.004032906 -9.3350673e-06 0)
(0.0040373435 -1.2433303e-05 0)
(0.0040432009 -1.5338826e-05 0)
(0.0040503874 -1.8062924e-05 0)
(0.004058817 -2.061565e-05 0)
(0.0040684089 -2.3005967e-05 0)
(0.0040790863 -2.5241877e-05 0)
(0.0040907761 -2.7330548e-05 0)
(0.0041034088 -2.927842e-05 0)
(0.0041169181 -3.109132e-05 0)
(0.0041312406 -3.2774545e-05 0)
(0.0041463155 -3.4332953e-05 0)
(0.0041620845 -3.577103e-05 0)
(0.0041784917 -3.7092962e-05 0)
(0.0041954831 -3.8302688e-05 0)
(0.0042130071 -3.9403947e-05 0)
(0.0042310138 -4.0400319e-05 0)
(0.0042494551 -4.1295266e-05 0)
(0.0042682849 -4.2092149e-05 0)
(0.0042874586 -4.2794263e-05 0)
(0.0043069334 -4.3404847e-05 0)
(0.0043266681 -4.3927105e-05 0)
(0.0043466231 -4.4364211e-05 0)
(0.0043667604 -4.4719322e-05 0)
(0.0043870434 -4.4995581e-05 0)
(0.0044074371 -4.5196119e-05 0)
(0.0044279081 -4.5324058e-05 0)
(0.0044484244 -4.538251e-05 0)
(0.0044689555 -4.5374575e-05 0)
(0.0044894721 -4.5303338e-05 0)
(0.0045099468 -4.5171869e-05 0)
(0.0045303531 -4.4983213e-05 0)
(0.0045506662 -4.474039e-05 0)
(0.0045708627 -4.444639e-05 0)
(0.0045909203 -4.4104166e-05 0)
(0.0046108181 -4.3716631e-05 0)
(0.0046305367 -4.3286654e-05 0)
(0.0046500578 -4.2817052e-05 0)
(0.0046693643 -4.2310588e-05 0)
(0.0046884404 -4.1769968e-05 0)
(0.0047072714 -4.1197834e-05 0)
(0.0047258439 -4.0596762e-05 0)
(0.0047441455 -3.9969259e-05 0)
(0.0047621649 -3.931776e-05 0)
(0.0047798919 -3.8644625e-05 0)
(0.0047973173 -3.7952136e-05 0)
(0.0048144328 -3.7242495e-05 0)
(0.0048312312 -3.6517827e-05 0)
(0.0048477061 -3.5780172e-05 0)
(0.0048638521 -3.5031488e-05 0)
(0.0048796644 -3.4273651e-05 0)
(0.0048951393 -3.3508453e-05 0)
(0.0049102737 -3.2737602e-05 0)
(0.0049250651 -3.1962723e-05 0)
(0.004939512 -3.1185361e-05 0)
(0.0049536134 -3.0406977e-05 0)
(0.0049673689 -2.9628952e-05 0)