/*--------------------------------*- C++ -*----------------------------------*\
| =========                 |                                                 |
| \\      /  F ield         | OpenFOAM: The Open Source CFD Toolbox           |
|  \\    /   O peration     | Version:  2406                                  |
|   \\  /    A nd           | Website:  www.openfoam.com                      |
|    \\/     M anipulation  |                                                 |
\*---------------------------------------------------------------------------*/
FoamFile
{
    version     2.0;
    format      ascii;
    arch        "LSB;label=32;scalar=64";
    class       volScalarField;
    location    "2000";
    object      p;
}
// * * * * * * * * * * * * * * * * * * * * * * * * * * * * * * * * * * * * * //

dimensions      [0 2 -2 0 0 0 0];

internalField   nonuniform List<scalar> 
9200
(
-0.0029739426
-0.00089079307
-0.00028176001
-0.00039649951
-0.00062645206
-0.00084932745
-0.0010372544
-0.0011794826
-0.001279246
-0.0013444578
-0.0013823738
-0.0013986906
-0.0013977847
-0.0013830355
-0.0013571124
-0.0013221928
-0.0012801055
-0.0012324173
-0.001180486
-0.0011254928
-0.0010684635
-0.0010102832
-0.00095170722
-0.00089337065
-0.00083579772
-0.00077941076
-0.00072453971
-0.0006714318
-0.0006202615
-0.00057114033
-0.00052412651
-0.00047923401
-0.00043644108
-0.00039569794
-0.00035693362
-0.00032006202
-0.00028498696
-0.00025160656
-0.00021981678
-0.00018951422
-0.00016059837
-0.00013297332
-0.00010654894
-8.1241705e-05
-5.6975184e-05
-3.3680251e-05
-1.1295063e-05
1.0235194e-05
3.0958426e-05
5.0916136e-05
7.0144117e-05
8.8672797e-05
0.00010652782
0.00012373062
0.00014029904
0.00015624781
0.00017158913
0.00018633308
0.00020048815
0.00021406162
0.0002270599
0.00023948891
0.00025135433
0.00026266184
0.00027341735
0.00028362713
0.00029329797
0.00030243725
0.00031105301
0.000319154
0.00032674966
0.00033385016
0.00034046635
0.0003466097
0.00035229232
0.00035752679
0.00036232622
0.00036670407
0.00037067416
0.00037425053
0.00037744741
0.00038027916
0.00038276013
0.00038490468
0.00038672708
0.00038824143
0.00038946167
0.00039040146
0.00039107422
0.00039149301
0.00039167057
0.00039161923
0.00039135095
0.00039087725
0.00039020922
0.00038935752
0.00038833233
0.0003871434
0.00038580001
0.00038431099
0.00038268471
0.00038092909
0.00037905163
0.00037705938
0.000374959
0.00037275671
0.00037045837
0.00036806946
0.00036559507
0.00036304
0.00036040869
0.00035770528
0.00035493363
0.00035209732
0.00034919969
0.00034624385
0.00034323267
0.00034016886
0.00033705493
0.00033389323
0.00033068596
0.00032743521
0.00032414291
0.00032081093
0.00031744103
0.00031403487
0.00031059405
0.00030712012
0.00030361454
0.00030007875
0.0002965141
0.00029292192
0.0002893035
0.00028566006
0.00028199279
0.00027830284
0.00027459129
0.0002708592
0.00026710754
0.00026333724
0.00025954918
0.00025574416
0.00025192292
0.0002480861
0.00024423431
0.00024036806
0.00023648777
0.0002325938
0.00022868641
0.00022476579
0.00022083205
0.00021688523
0.00021292527
0.00020895206
0.00020496541
0.00020096509
0.00019695077
0.00019292213
0.00018887874
0.00018482019
0.00018074599
0.00017665568
0.00017254874
0.00016842467
0.00016428294
0.00016012306
0.00015594453
0.00015174685
0.00014752958
0.00014329226
0.00013903448
0.00013475585
0.00013045602
0.00012613464
0.00012179141
0.00011742606
0.0001130383
0.00010862791
0.00010419464
9.9738263e-05
9.5258549e-05
9.0755259e-05
8.6228132e-05
8.1676886e-05
7.7101195e-05
7.2500687e-05
6.7874926e-05
6.3223397e-05
5.8545489e-05
5.3840475e-05
4.9107491e-05
4.43455e-05
3.9553255e-05
3.472918e-05
2.9871075e-05
2.4975234e-05
2.0031521e-05
1.5009266e-05
9.8813939e-06
4.547507e-06
-0.0036328485
-0.00098005184
-0.00028870451
-0.00041315061
-0.00062857311
-0.00083450556
-0.0010136503
-0.001152347
-0.0012509453
-0.0013162639
-0.0013549488
-0.0013723076
-0.0013725327
-0.0013589335
-0.0013341558
-0.0013003726
-0.0012594159
-0.0012128568
-0.0011620554
-0.0011081932
-0.0010522933
-0.00099523595
-0.00093777001
-0.00088052326
-0.00082401213
-0.00076865142
-0.0007147642
-0.00066259191
-0.00061230447
-0.00056401021
-0.00051776549
-0.00047358374
-0.00043144379
-0.00039129742
-0.00035307602
-0.0003166964
-0.00028206577
-0.00024908587
-0.00021765635
-0.00018767753
-0.00015905251
-0.00013168881
-0.00010549949
-8.0403976e-05
-5.632849e-05
-3.3206282e-05
-1.09776e-05
1.0410557e-05
3.1004474e-05
5.0844302e-05
6.9964721e-05
8.8395201e-05
0.00010616056
0.00012328156
0.00013977545
0.00015565651
0.00017093649
0.00018562517
0.00019973072
0.00021326014
0.00022621961
0.00023861483
0.00025045125
0.00026173437
0.00027246986
0.00028266381
0.00029232279
0.00030145397
0.00031006517
0.00031816492
0.00032576245
0.0003328677
0.0003394913
0.00034564451
0.00035133918
0.00035658771
0.00036140298
0.00036579824
0.00036978711
0.00037338343
0.00037660126
0.00037945476
0.00038195812
0.00038412555
0.00038597116
0.00038750892
0.00038875263
0.00038971586
0.0003904119
0.00039085373
0.00039105398
0.00039102495
0.00039077849
0.0003903261
0.0003896788
0.00038884721
0.0003878415
0.00038667138
0.00038534611
0.00038387451
0.00038226495
0.00038052535
0.00037866321
0.00037668558
0.00037459914
0.00037241012
0.0003701244
0.00036774747
0.00036528446
0.00036274017
0.00036011906
0.00035742531
0.0003546628
0.00035183512
0.00034894565
0.00034599749
0.00034299358
0.00033993661
0.00033682913
0.0003336735
0.00033047194
0.00032722655
0.0003239393
0.00032061204
0.00031724656
0.00031384453
0.00031040757
0.00030693722
0.00030343496
0.00029990223
0.0002963404
0.0002927508
0.00028913472
0.00028549339
0.00028182802
0.00027813975
0.00027442967
0.00027069883
0.00026694824
0.00026317881
0.00025939144
0.00025558692
0.00025176601
0.00024792937
0.00024407759
0.0002402112
0.00023633064
0.00023243627
0.00022852837
0.00022460713
0.00022067267
0.00021672504
0.00021276419
0.00020879003
0.00020480237
0.00020080098
0.00019678557
0.00019275579
0.00018871124
0.00018465151
0.00018057613
0.00017648462
0.00017237648
0.0001682512
0.00016410828
0.0001599472
0.00015576747
0.0001515686
0.00014735013
0.00014311162
0.00013885264
0.0001345728
0.00013027175
0.00012594913
0.00012160464
0.00011723798
0.0001128489
0.00010843713
0.00010400243
9.9544568e-05
9.50633e-05
9.0558376e-05
8.6029527e-05
8.1476455e-05
7.6898817e-05
7.2296221e-05
6.7668201e-05
6.3014201e-05
5.8333555e-05
5.3625452e-05
4.8888893e-05
4.4122633e-05
3.9325069e-05
3.4494032e-05
2.9626369e-05
2.471681e-05
1.9752629e-05
1.4707966e-05
9.5940378e-06
4.3247154e-06
-0.00092834438
-0.0003455858
-0.0002558273
-0.00045785397
-0.00066606305
-0.00084504467
-0.001000814
-0.0011257069
-0.0012175266
-0.0012802733
-0.0013187015
-0.0013368899
-0.0013383626
-0.001326135
-0.0013027457
-0.0012703405
-0.0012307538
-0.0011855676
-0.0011361516
-0.0010836924
-0.0010292131
-0.00097358963
-0.00091756315
-0.00086175121
-0.00080665872
-0.00075268856
-0.00070015233
-0.0006492811
-0.00060023593
-0.00055311819
-0.00050797919
-0.00046482927
-0.00042364595
-0.00038438132
-0.00034696843
-0.00031132688
-0.00027736746
-0.00024499608
-0.00021411693
-0.00018463504
-0.00015645822
-0.00012949858
-0.00010367355
-7.8906661e-05
-5.5127906e-05
-3.2273969e-05
-1.0288206e-05
1.0879496e-05
3.1273181e-05
5.0931147e-05
6.9886193e-05
8.8166191e-05
0.00010579461
0.00012279105
0.00013917179
0.00015495027
0.00017013756
0.00018474278
0.00019877357
0.00021223645
0.00022513718
0.00023748104
0.00024927312
0.00026051855
0.00027122268
0.00028139127
0.00029103054
0.00030014736
0.00030874923
0.00031684434
0.00032444163
0.0003315507
0.00033818186
0.00034434607
0.00035005488
0.00035532039
0.00036015515
0.00036457217
0.00036858475
0.0003722065
0.00037545119
0.00037833275
0.00038086515
0.00038306237
0.00038493831
0.00038650676
0.00038778135
0.00038877547
0.00038950228
0.00038997462
0.00039020502
0.00039020564
0.00038998828
0.00038956432
0.00038894474
0.0003881401
0.00038716052
0.00038601567
0.00038471479
0.00038326668
0.0003816797
0.00037996177
0.00037812037
0.0003761626
0.00037409511
0.00037192417
0.00036965567
0.00036729513
0.00036484769
0.00036231819
0.00035971112
0.00035703068
0.00035428077
0.00035146502
0.00034858684
0.00034564935
0.00034265552
0.00033960806
0.00033650955
0.00033336237
0.00033016876
0.00032693084
0.00032365059
0.0003203299
0.00031697055
0.00031357425
0.00031014261
0.00030667719
0.00030317949
0.00029965094
0.00029609294
0.00029250683
0.0002888939
0.00028525539
0.00028159252
0.00027790643
0.00027419825
0.00027046901
0.00026671973
0.00026295136
0.00025916478
0.00025536081
0.00025154021
0.00024770366
0.00024385178
0.00023998509
0.00023610405
0.00023220904
0.00022830034
0.00022437817
0.00022044267
0.00021649388
0.0002125318
0.00020855631
0.00020456727
0.00020056444
0.00019654754
0.00019251624
0.00018847015
0.00018440886
0.0001803319
0.0001762388
0.00017212908
0.00016800221
0.0001638577
0.00015969503
0.00015551371
0.00015131324
0.00014709316
0.00014285303
0.00013859241
0.00013431091
0.00013000815
0.0001256838
0.00012133753
0.00011696904
0.00011257806
0.00010816433
0.00010372759
9.9267592e-05
9.4784092e-05
9.0276827e-05
8.5745514e-05
8.1189837e-05
7.6609436e-05
7.2003891e-05
6.7372699e-05
6.2715256e-05
5.8030822e-05
5.3318476e-05
4.8577051e-05
4.3805033e-05
3.9000392e-05
3.4160317e-05
2.9280803e-05
2.435548e-05
1.9371584e-05
1.4321648e-05
9.2806866e-06
4.0955771e-06
-0.00089727815
-0.00090395571
-0.00080531579
-0.0007994257
-0.00087794633
-0.00098209216
-0.0010858693
-0.0011765322
-0.0012470905
-0.001296185
-0.0013253744
-0.0013370359
-0.0013336788
-0.0013177151
-0.0012913417
-0.0012565129
-0.0012149561
-0.0011681949
-0.0011175664
-0.0010642357
-0.0010092083
-0.00095334025
-0.00089734897
-0.00084182381
-0.00078723755
-0.0007339583
-0.00068226177
-0.00063234351
-0.00058433092
-0.00053829452
-0.00049425844
-0.00045220985
-0.00041210732
-0.00037388806
-0.00033747402
-0.00030277706
-0.00026970316
-0.0002381558
-0.0002080387
-0.00017925791
-0.00015172334
-0.00012534997
-0.00010005863
-7.5776471e-05
-5.2437237e-05
-2.9981311e-05
-8.3556178e-06
1.2486607e-05
3.2586193e-05
5.1978342e-05
7.0693098e-05
8.8756005e-05
0.00010618851
0.00012300827
0.00013922979
0.00015486492
0.00016992334
0.00018441293
0.00019834023
0.00021171076
0.00022452937
0.00023680055
0.00024852866
0.00025971817
0.00027037383
0.00028050085
0.00029010494
0.0002991925
0.00030777057
0.00031584697
0.0003234302
0.00033052953
0.00033715492
0.00034331699
0.00034902697
0.00035429667
0.00035913836
0.00036356476
0.00036758893
0.00037122422
0.00037448417
0.00037738248
0.00037993291
0.00038214924
0.00038404519
0.00038563437
0.00038693024
0.00038794606
0.00038869483
0.00038918926
0.00038944178
0.00038946445
0.00038926895
0.0003888666
0.0003882683
0.00038748454
0.00038652539
0.00038540049
0.00038411902
0.00038268977
0.00038112106
0.00037942079
0.00037759646
0.00037565513
0.00037360346
0.00037144773
0.00036919382
0.00036684725
0.0003644132
0.0003618965
0.00035930165
0.00035663286
0.00035389406
0.00035108889
0.00034822075
0.00034529281
0.00034230802
0.00033926913
0.0003361787
0.00033303915
0.00032985272
0.00032662154
0.0003233476
0.00032003279
0.00031667892
0.00031328768
0.00030986071
0.00030639958
0.00030290579
0.00029938078
0.00029582597
0.00029224268
0.00028863224
0.0002849959
0.00028133488
0.00027765033
0.0002739434
0.00027021514
0.00026646657
0.00026269867
0.00025891232
0.00025510837
0.00025128759
0.00024745068
0.00024359827
0.0002397309
0.00023584906
0.00023195312
0.0002280434
0.00022412012
0.00022018344
0.00021623341
0.00021227004
0.00020829323
0.00020430284
0.00020029865
0.00019628037
0.00019224768
0.00018820021
0.00018413753
0.00018005919
0.00017596471
0.0001718536
0.00016772535
0.00016357944
0.00015941536
0.00015523262
0.00015103071
0.00014680916
0.00014256753
0.00013830537
0.00013402228
0.00012971789
0.00012539184
0.00012104381
0.0001166735
0.00011228063
0.00010786493
0.00010342614
9.8964027e-05
9.4478328e-05
8.9968783e-05
8.543511e-05
8.0876991e-05
7.6294067e-05
7.1685915e-05
6.7052034e-05
6.239182e-05
5.7704535e-05
5.2989267e-05
4.8244882e-05
4.3469947e-05
3.8662643e-05
3.3820677e-05
2.8941273e-05
2.4020904e-05
1.9052854e-05
1.4044556e-05
9.099789e-06
4.1772636e-06
-0.0011057462
-0.0010872056
-0.0010148876
-0.0010033591
-0.001059538
-0.0011350232
-0.0012074563
-0.0012708793
-0.0013208558
-0.0013547568
-0.0013724749
-0.0013751852
-0.0013645038
-0.0013422235
-0.0013101774
-0.0012701358
-0.0012237519
-0.001172538
-0.0011178531
-0.0010608969
-0.0010027072
-0.00094416302
-0.00088599039
-0.00082877147
-0.00077295682
-0.00071887948
-0.00066677035
-0.00061677392
-0.00056896366
-0.00052335631
-0.00047992478
-0.00043860943
-0.00039932749
-0.00036198085
-0.00032646231
-0.00029266041
-0.00026046317
-0.00022976082
-0.00020044779
-0.00017242416
-0.00014559651
-0.00011987855
-9.5191373e-05
-7.1463516e-05
-4.8630891e-05
-2.6636543e-05
-5.4303401e-06
1.503142e-05
3.4786474e-05
5.3867046e-05
7.230023e-05
9.0108605e-05
0.00010731111
0.00012392344
0.00013995798
0.0001554246
0.0001703312
0.0001846841
0.00019848839
0.00021174834
0.00022446765
0.00023664978
0.00024829818
0.00025941651
0.00027000878
0.00028007953
0.0002896339
0.00029867774
0.00030721764
0.00031526093
0.00032281577
0.00032989103
0.00033649634
0.00034264202
0.000348339
0.00035359882
0.0003584335
0.00036285551
0.00036687769
0.00037051317
0.00037377529
0.00037667756
0.00037923354
0.00038145685
0.00038336103
0.00038495954
0.0003862657
0.00038729261
0.00038805315
0.00038855993
0.00038882524
0.00038886104
0.00038867893
0.00038829014
0.00038770549
0.0003869354
0.00038598989
0.00038487853
0.00038361046
0.00038219443
0.00038063872
0.00037895122
0.00037713938
0.00037521025
0.00037317047
0.00037102631
0.00036878364
0.00036644798
0.00036402448
0.00036151797
0.00035893297
0.00035627367
0.00035354398
0.00035074757
0.00034788782
0.00034496791
0.00034199077
0.00033895916
0.00033587565
0.00033274263
0.00032956237
0.00032633699
0.00032306847
0.00031975872
0.00031640953
0.0003130226
0.00030959959
0.00030614205
0.00030265149
0.00029912937
0.00029557711
0.00029199604
0.0002883875
0.00028475275
0.00028109302
0.0002774095
0.00027370332
0.00026997557
0.00026622728
0.00026245945
0.00025867298
0.00025486874
0.00025104751
0.00024721003
0.00024335692
0.00023948877
0.00023560606
0.00023170919
0.0002277985
0.00022387422
0.00021993651
0.00021598546
0.00021202105
0.00020804323
0.00020405183
0.00020004665
0.0001960274
0.00019199377
0.00018794537
0.00018388178
0.00017980254
0.00017570717
0.00017159518
0.00016746603
0.00016331922
0.00015915422
0.00015497052
0.00015076762
0.00014654504
0.00014230231
0.00013803901
0.00013375471
0.00012944904
0.00012512164
0.0001207722
0.00011640039
0.00011200595
0.00010758862
0.00010314814
9.8684273e-05
9.4196777e-05
8.9685401e-05
8.5149879e-05
8.0589915e-05
7.6005173e-05
7.1395267e-05
6.675974e-05
6.2098053e-05
5.7409562e-05
5.2693502e-05
4.7948968e-05
4.3174909e-05
3.8370157e-05
3.3533553e-05
2.86643e-05
2.3762527e-05
1.8827494e-05
1.3875494e-05
9.006594e-06
4.3649398e-06
-0.0012679222
-0.00125434
-0.0012300147
-0.0012310702
-0.0012642076
-0.0013100098
-0.0013557529
-0.001396601
-0.0014285673
-0.0014485353
-0.0014553226
-0.0014491038
-0.0014307099
-0.0014013565
-0.001362505
-0.0013157303
-0.0012626224
-0.0012047216
-0.001143473
-0.0010801916
-0.0010160385
-0.0009520063
-0.00088891311
-0.00082740549
-0.00076796763
-0.00071093635
-0.00065651985
-0.00060481851
-0.00055584614
-0.00050955025
-0.00046583044
-0.00042455415
-0.00038556963
-0.00034871615
-0.00031383159
-0.00028075788
-0.00024934464
-0.00021945143
-0.00019094894
-0.00016371945
-0.00013765682
-0.00011266612
-8.8663071e-05
-6.5573389e-05
-4.3332062e-05
-2.1882616e-05
-1.1763848e-06
1.8828207e-05
3.8166346e-05
5.6867499e-05
7.4956043e-05
9.2451739e-05
0.00010937022
0.00012572443
0.00014152504
0.0001567797
0.00017149412
0.00018567267
0.00019931875
0.00021243506
0.00022502391
0.00023708753
0.00024862825
0.00025964873
0.00027015212
0.00028014217
0.00028962335
0.00029860087
0.00030708078
0.00031506995
0.00032257607
0.00032960764
0.00033617391
0.00034228488
0.0003479512
0.00035318411
0.00035799538
0.00036239723
0.00036640228
0.00037002343
0.00037327383
0.00037616676
0.00037871563
0.00038093384
0.00038283477
0.00038443173
0.00038573786
0.00038676612
0.00038752924
0.0003880397
0.00038830966
0.00038835097
0.00038817511
0.00038779321
0.00038721601
0.00038645383
0.0003855166
0.00038441382
0.0003831546
0.00038174759
0.00038020105
0.00037852279
0.00037672023
0.00037480039
0.00037276988
0.00037063491
0.00036840135
0.00036607468
0.00036366004
0.00036116223
0.00035858573
0.00035593474
0.00035321316
0.00035042461
0.00034757248
0.00034465991
0.00034168984
0.00033866501
0.00033558797
0.00033246112
0.00032928669
0.0003260668
0.00032280344
0.00031949849
0.00031615375
0.00031277093
0.00030935165
0.00030589749
0.00030240997
0.00029889054
0.00029534061
0.00029176157
0.00028815473
0.00028452138
0.00028086276
0.00027718008
0.00027347448
0.00026974709
0.00026599896
0.00026223108
0.00025844441
0.00025463982
0.00025081812
0.00024698007
0.00024312632
0.00023925746
0.00023537401
0.00023147638
0.00022756491
0.00022363987
0.00021970142
0.00021574965
0.00021178457
0.00020780611
0.00020381412
0.00019980839
0.00019578864
0.00019175454
0.00018770571
0.00018364171
0.00017956209
0.00017546635
0.00017135398
0.00016722445
0.00016307723
0.00015891179
0.00015472761
0.00015052417
0.000146301
0.00014205761
0.00013779357
0.00013350846
0.0001292019
0.00012487353
0.00012052303
0.0001161501
0.00011175447
0.00010733589
0.00010289413
9.8428946e-05
9.3940135e-05
8.942747e-05
8.4890717e-05
8.0329625e-05
7.5743912e-05
7.1133264e-05
6.6497322e-05
6.1835676e-05
5.714787e-05
5.2433404e-05
4.7691766e-05
4.2922497e-05
3.8125325e-05
3.3300452e-05
2.8449093e-05
2.3574494e-05
1.8679837e-05
1.3787567e-05
8.9723439e-06
4.5946381e-06
-0.0014449152
-0.0014412906
-0.0014338695
-0.001434832
-0.0014521629
-0.001479855
-0.0015093341
-0.001535499
-0.0015548235
-0.0015644968
-0.0015629211
-0.0015496255
-0.0015248567
-0.0014893477
-0.0014441983
-0.0013907592
-0.001330525
-0.0012650499
-0.0011958779
-0.0011244834
-0.0010522205
-0.00098028513
-0.00090968892
-0.00084124559
-0.00077556956
-0.00071308509
-0.00065404411
-0.00059855004
-0.00054658506
-0.00049803805
-0.00045273129
-0.00041044423
-0.00037093348
-0.00033394855
-0.00029924364
-0.00026658563
-0.00023575914
-0.00020656914
-0.00017884177
-0.000152424
-0.00012718251
-0.0001030021
-7.9783978e-05
-5.7443966e-05
-3.5910818e-05
-1.512463e-05
4.9645868e-06
2.4398201e-05
4.3210107e-05
6.1427756e-05
7.9073071e-05
9.616328e-05
0.00011271152
0.00012872689
0.00014421689
0.00015918777
0.000173643
0.00018758456
0.00020101372
0.00021393131
0.00022633798
0.00023823444
0.00024962167
0.00026050114
0.00027087491
0.0002807458
0.00029011743
0.00029899428
0.00030738173
0.00031528606
0.00032271443
0.00032967487
0.0003361762
0.00034222804
0.00034784065
0.00035302495
0.00035779239
0.00036215492
0.00036612486
0.00036971484
0.00037293775
0.00037580665
0.00037833469
0.00038053505
0.0003824209
0.00038400533
0.00038530128
0.00038632151
0.00038707859
0.0003875848
0.00038785215
0.00038789232
0.00038771666
0.00038733615
0.00038676139
0.00038600261
0.00038506962
0.00038397182
0.00038271821
0.00038131737
0.00037977747
0.00037810626
0.00037631108
0.0003743989
0.00037237626
0.00037024933
0.00036802393
0.00036570549
0.00036329911
0.00036080955
0.00035824127
0.00035559842
0.00035288485
0.00035010418
0.00034725975
0.0003443547
0.00034139191
0.00033837411
0.00033530384
0.00033218345
0.00032901518
0.00032580112
0.00032254325
0.00031924345
0.00031590348
0.00031252507
0.00030910983
0.00030565934
0.00030217512
0.00029865862
0.00029511128
0.00029153447
0.00028792953
0.00028429777
0.00028064045
0.00027695878
0.00027325395
0.00026952709
0.00026577928
0.00026201154
0.00025822486
0.00025442012
0.00025059818
0.0002467598
0.00024290566
0.00023903638
0.00023515249
0.00023125442
0.00022734254
0.00022341711
0.00021947832
0.00021552626
0.00021156095
0.00020758231
0.00020359021
0.00019958443
0.00019556468
0.00019153063
0.00018748188
0.000183418
0.00017933851
0.00017524291
0.00017113067
0.00016700126
0.00016285412
0.00015868872
0.00015450452
0.00015030101
0.00014607768
0.00014183405
0.00013756969
0.00013328417
0.00012897711
0.00012464816
0.000120297
0.00011592335
0.00011152693
0.00010710753
0.00010266493
9.819893e-05
9.3709345e-05
8.9195995e-05
8.46587e-05
8.0097271e-05
7.5511511e-05
7.0901213e-05
6.6266154e-05
6.1606114e-05
5.6920885e-05
5.2210318e-05
4.747438e-05
4.2713286e-05
3.7927699e-05
3.3119101e-05
2.829034e-05
2.344688e-05
1.8593569e-05
1.375808e-05
8.9750234e-06
4.8529842e-06
-0.0016286613
-0.0016281243
-0.0016250436
-0.0016239098
-0.0016320174
-0.0016479979
-0.0016660127
-0.0016816978
-0.0016919686
-0.0016941929
-0.0016865275
-0.0016680475
-0.001638525
-0.0015982584
-0.0015479859
-0.0014887937
-0.0014220217
-0.001349177
-0.0012718558
-0.0011916678
-0.0011101665
-0.0010287879
-0.00094880081
-0.00087127091
-0.00079703951
-0.000726718
-0.0006606962
-0.0005991624
-0.00054213198
-0.00048948088
-0.00044098068
-0.00039633216
-0.00035519521
-0.00031721382
-0.0002820354
-0.00024932474
-0.00021877307
-0.00019010301
-0.00016307046
-0.00013746419
-0.00011310401
-8.983802e-05
-6.7539498e-05
-4.6103729e-05
-2.5444946e-05
-5.4935338e-06
1.3806474e-05
3.2499574e-05
5.0620685e-05
6.8196764e-05
8.5248186e-05
0.00010178995
0.0001178327
0.00013338353
0.00014844546
0.00016302081
0.00017711185
0.00019071843
0.00020383917
0.0002164725
0.000228617
0.00024027151
0.00025143534
0.00026210842
0.00027229148
0.00028198611
0.00029119485
0.00029992121
0.00030816972
0.00031594586
0.00032325611
0.00033010784
0.00033650931
0.00034246958
0.00034799843
0.0003531063
0.00035780423
0.00036210372
0.00036601672
0.00036955548
0.00037273253
0.00037556057
0.00037805243
0.00038022098
0.00038207906
0.00038363947
0.00038491487
0.00038591776
0.00038666042
0.00038715492
0.00038741301
0.00038744616
0.00038726552
0.00038688188
0.00038630565
0.00038554689
0.00038461525
0.00038352
0.00038227
0.0003808737
0.00037933915
0.00037767401
0.00037588552
0.00037398054
0.00037196556
0.00036984666
0.00036762957
0.00036531968
0.00036292201
0.00036044128
0.00035788187
0.0003552479
0.00035254318
0.00034977126
0.00034693545
0.00034403885
0.00034108431
0.00033807452
0.00033501198
0.00033189903
0.00032873788
0.00032553059
0.00032227912
0.00031898534
0.000315651
0.00031227781
0.0003088674
0.00030542132
0.0003019411
0.00029842821
0.00029488409
0.00029131012
0.00028770766
0.00028407803
0.00028042252
0.00027674237
0.00027303878
0.00026931291
0.00026556587
0.00026179872
0.00025801245
0.00025420801
0.00025038625
0.00024654797
0.00024269389
0.00023882463
0.00023494076
0.00023104272
0.0002271309
0.00022320557
0.00021926693
0.00021531509
0.00021135005
0.00020737176
0.00020338007
0.00019937476
0.00019535554
0.00019132206
0.00018727392
0.00018321068
0.00017913184
0.00017503688
0.00017092527
0.00016679645
0.00016264987
0.00015848496
0.00015430119
0.00015009803
0.00014587496
0.0001416315
0.00013736721
0.00013308167
0.0001287745
0.00012444536
0.00012009393
0.00011571995
0.00011132317
0.00010690339
0.00010246042
9.7994104e-05
9.3504304e-05
8.8990892e-05
8.4453756e-05
7.9892791e-05
7.5307905e-05
7.069902e-05
6.6066086e-05
6.14091e-05
5.6728141e-05
5.2023435e-05
4.7295446e-05
4.2545034e-05
3.7773684e-05
3.2983899e-05
2.817963e-05
2.3367701e-05
1.8552739e-05
1.3768063e-05
8.9972726e-06
5.129411e-06
-0.0018148543
-0.0018152621
-0.0018104854
-0.0018057518
-0.0018083962
-0.0018163474
-0.0018255019
-0.0018332027
-0.0018367801
-0.0018334968
-0.0018212985
-0.0017989411
-0.0017658109
-0.0017218278
-0.0016673943
-0.0016033247
-0.0015307663
-0.0014511224
-0.0013659764
-0.0012770129
-0.0011859385
-0.0010944055
-0.0010039435
-0.00091590119
-0.00083140291
-0.00075132231
-0.00067627325
-0.00060661753
-0.00054248695
-0.000483816
-0.00043038111
-0.00038184214
-0.0003377826
-0.00029774558
-0.00026126373
-0.00022788241
-0.00019717611
-0.00016875877
-0.00014228899
-0.00011747143
-9.4055272e-05
-7.183106e-05
-5.062641e-05
-3.0301388e-05
-1.0743894e-05
8.1346864e-06
2.64034e-05
4.4115178e-05
6.1309791e-05
7.8016373e-05
9.4255519e-05
0.00011004105
0.0001253815
0.00014028138
0.00015474208
0.00016876099
0.00018233538
0.00019546365
0.00020814251
0.00022036748
0.0002321343
0.00024343941
0.00025427995
0.00026465386
0.00027456009
0.00028399859
0.00029297044
0.00030147782
0.00030952405
0.00031711353
0.00032425172
0.00033094509
0.00033720103
0.00034302783
0.00034843453
0.00035343088
0.00035802726
0.00036223457
0.00036606415
0.00036952771
0.00037263722
0.0003754049
0.00037784306
0.0003799641
0.00038178043
0.0003833044
0.00038454827
0.00038552414
0.00038624394
0.00038671936
0.00038696185
0.00038698256
0.00038679234
0.00038640172
0.00038582085
0.00038505955
0.00038412727
0.00038303306
0.0003817856
0.00038039316
0.00037886365
0.00037720457
0.00037542303
0.00037352577
0.00037151915
0.00036940916
0.00036720143
0.00036490126
0.00036251359
0.00036004304
0.00035749396
0.00035487036
0.00035217601
0.0003494144
0.00034658879
0.00034370221
0.00034075748
0.00033775724
0.00033470396
0.00033159994
0.00032844736
0.00032524824
0.00032200454
0.00031871809
0.00031539065
0.0003120239
0.00030861946
0.0003051789
0.00030170374
0.00029819546
0.0002946555
0.00029108527
0.00028748615
0.00028385947
0.00028020654
0.00027652864
0.000272827
0.0002691028
0.00026535719
0.00026159126
0.00025780603
0.00025400247
0.00025018149
0.00024634389
0.00024249043
0.00023862177
0.00023473847
0.00023084102
0.0002269298
0.00022300513
0.00021906719
0.0002151161
0.00021115189
0.00020717448
0.00020318373
0.00019917942
0.00019516124
0.00019112885
0.00018708183
0.00018301972
0.000178942
0.00017484816
0.00017073763
0.00016660986
0.00016246425
0.00015830026
0.00015411732
0.0001499149
0.00014569247
0.00014144956
0.00013718571
0.00013290052
0.0001285936
0.00012426462
0.0001199133
0.00011553937
0.00011114263
0.00010672289
0.00010228001
9.781388e-05
9.3324409e-05
8.8811539e-05
8.4275234e-05
7.9715489e-05
7.5132327e-05
7.0525819e-05
6.5896097e-05
6.1243386e-05
5.6568055e-05
5.1870691e-05
4.7152207e-05
4.2414007e-05
3.7658212e-05
3.2888023e-05
2.8107972e-05
2.332559e-05
1.8543864e-05
1.3803098e-05
9.0269612e-06
5.415173e-06
-0.002000129
-0.0020188797
-0.0019966225
-0.0019732632
-0.0019694439
-0.0019740389
-0.0019793615
-0.0019833533
-0.001983616
-0.0019773801
-0.0019625453
-0.0019377085
-0.0019020149
-0.0018551297
-0.0017972119
-0.0017288594
-0.0016510488
-0.0015650732
-0.0014724737
-0.0013749646
-0.001274354
-0.0011724622
-0.0010710432
-0.00097171106
-0.00087587903
-0.00078471211
-0.00069909825
-0.00061963841
-0.00054665491
-0.00048021575
-0.00042017122
-0.00036619807
-0.00031784657
-0.00027458639
-0.0002358477
-0.0002010556
-0.00016965663
-0.00014113746
-0.00011503643
-9.0949142e-05
-6.852934e-05
-4.7486573e-05
-2.7581706e-05
-8.6212787e-06
9.5485482e-06
2.7047984e-05
4.3969193e-05
6.0381315e-05
7.6334845e-05
9.1865372e-05
0.00010699672
0.00012174355
0.0001361135
0.00015010895
0.00016372853
0.00017696812
0.00018982002
0.00020227624
0.0002143311
0.00022597857
0.00023721118
0.00024802195
0.00025840505
0.00026835581
0.00027787075
0.00028694763
0.00029558545
0.00030378454
0.0003115465
0.00031887414
0.00032577148
0.00033224363
0.00033829674
0.0003439379
0.00034917507
0.00035401696
0.00035847299
0.00036255311
0.0003662678
0.00036962793
0.00037264469
0.00037532952
0.00037769404
0.00037974994
0.000381509
0.00038298294
0.00038418344
0.00038512205
0.00038581019
0.00038625905
0.00038647962
0.00038648263
0.00038627853
0.00038587747
0.00038528927
0.00038452342
0.00038358907
0.00038249501
0.00038124967
0.00037986109
0.00037833696
0.0003766846
0.00037491093
0.00037302254
0.00037102564
0.00036892608
0.00036672936
0.00036444066
0.00036206483
0.00035960639
0.00035706959
0.00035445835
0.00035177638
0.00034902708
0.00034621366
0.00034333908
0.00034040612
0.00033741735
0.00033437519
0.00033128192
0.00032813966
0.00032495043
0.00032171614
0.00031843861
0.00031511957
0.00031176071
0.00030836363
0.00030492991
0.00030146107
0.00029795859
0.00029442394
0.00029085853
0.00028726376
0.00028364101
0.0002799916
0.00027631684
0.00027261798
0.00026889626
0.00026515285
0.00026138888
0.0002576054
0.00025380342
0.00024998387
0.0002461476
0.00024229539
0.00023842792
0.0002345458
0.00023064952
0.00022673949
0.00022281602
0.00021887934
0.00021492955
0.00021096668
0.00020699067
0.00020300137
0.00019899854
0.0001949819
0.00019095106
0.00018690561
0.00018284505
0.00017876889
0.00017467657
0.00017056752
0.00016644116
0.0001622969
0.00015813417
0.0001539524
0.00014975105
0.00014552959
0.00014128754
0.00013702444
0.0001327399
0.00012843355
0.00012410507
0.00011975418
0.00011538065
0.00011098431
0.00010656501
0.00010212264
9.7657154e-05
9.3168513e-05
8.8656733e-05
8.4121866e-05
7.9564006e-05
7.4983304e-05
7.0379977e-05
6.5754338e-05
6.1106832e-05
5.6438092e-05
5.1749018e-05
4.7040888e-05
4.2315517e-05
3.7575447e-05
3.2824276e-05
2.8066678e-05
2.3310472e-05
1.8555978e-05
1.3852312e-05
9.0557199e-06
5.7033597e-06
-0.0021121641
-0.0022315285
-0.0022227518
-0.0021770485
-0.0021492991
-0.0021373045
-0.0021337129
-0.002132915
-0.0021301078
-0.0021218062
-0.0021055024
-0.0020793262
-0.0020420457
-0.0019930555
-0.0019322945
-0.001860178
-0.0017775452
-0.0016856026
-0.0015858576
-0.001480046
-0.001370054
-0.0012578361
-0.0011453323
-0.0010343875
-0.00092667877
-0.00082365378
-0.00072648482
-0.00063604132
-0.00055288189
-0.00047726532
-0.00040917832
-0.00034837594
-0.00029443004
-0.00024678092
-0.00020478739
-0.00016777187
-0.00013505805
-0.00010599995
-8.0002239e-05
-5.6532658e-05
-3.5127762e-05
-1.5393428e-05
2.9983262e-06
2.0314928e-05
3.6770118e-05
5.2531292e-05
6.7726713e-05
8.2452249e-05
9.6777398e-05
0.00011075054
0.00012440343
0.0001377549
0.00015081397
0.00016358234
0.00017605644
0.0001882291
0.00020009081
0.00021162917
0.00022283064
0.00023368493
0.00024418351
0.00025431584
0.0002640719
0.00027344335
0.00028242347
0.00029100699
0.00029919012
0.00030697057
0.0003143475
0.00032132149
0.00032789445
0.00033406954
0.00033985109
0.00034524449
0.00035025608
0.00035489309