/*--------------------------------*- C++ -*----------------------------------*\
| =========                 |                                                 |
| \\      /  F ield         | OpenFOAM: The Open Source CFD Toolbox           |
|  \\    /   O peration     | Version:  2406                                  |
|   \\  /    A nd           | Website:  www.openfoam.com                      |
|    \\/     M anipulation  |                                                 |
\*---------------------------------------------------------------------------*/
FoamFile
{
    version     2.0;
    format      ascii;
    arch        "LSB;label=32;scalar=64";
    class       surfaceScalarField;
    location    "2000";
    object      phi;
}
// * * * * * * * * * * * * * * * * * * * * * * * * * * * * * * * * * * * * * //

dimensions      [0 3 -1 0 0 0 0];

oriented        oriented;

internalField   nonuniform List<scalar> 
18154
(
1.6766987e-13
-1.6766987e-13
2.4721383e-12
-2.3044684e-12
3.9873003e-12
-1.515162e-12
4.5151236e-12
-5.2782324e-13
4.5145486e-12
5.7497696e-16
4.2882027e-12
2.263459e-13
3.9809817e-12
3.0722102e-13
3.6586123e-12
3.2236939e-13
3.3486253e-12
3.0998693e-13
3.0597797e-12
2.8884562e-13
2.7928713e-12
2.6690841e-13
2.5461443e-12
2.46727e-13
2.3174451e-12
2.2869926e-13
2.1049076e-12
2.1253742e-13
1.9070883e-12
1.9781932e-13
1.7229126e-12
1.8417577e-13
1.5515783e-12
1.7133425e-13
1.3924678e-12
1.5911052e-13
1.2450787e-12
1.4738909e-13
1.108973e-12
1.3610568e-13
9.8373973e-13
1.252333e-13
8.6896853e-13
1.147712e-13
7.642327e-13
1.0473584e-13
6.6907941e-13
9.5153285e-14
5.830263e-13
8.6053118e-14
5.0556274e-13
7.7463561e-14
4.3615478e-13
6.9407959e-14
3.7425234e-13
6.1902437e-14
3.192977e-13
5.4954642e-14
2.7073433e-13
4.856337e-14
2.2801541e-13
4.2718918e-14
1.9061148e-13
3.7403934e-14
1.5801687e-13
3.259461e-14
1.2975482e-13
2.8262045e-14
1.0538117e-13
2.4373649e-14
8.448667e-14
2.0894504e-14
6.6698076e-14
1.7788595e-14
5.1678184e-14
1.5019892e-14
3.9124942e-14
1.2553242e-14
2.876986e-14
1.0355082e-14
2.0375892e-14
8.3939679e-15
1.3734949e-14
6.6409427e-15
8.6651912e-15
5.0697581e-15
5.0082174e-15
3.6569736e-15
2.6262607e-15
2.3819563e-15
1.3994466e-15
1.2268138e-15
1.2231707e-15
1.762753e-16
2.005765e-15
-7.8259467e-16
3.6666384e-15
-1.660874e-15
6.1343568e-15
-2.4677189e-15
9.3447329e-15
-3.2103768e-15
1.3239261e-14
-3.8945288e-15
1.7763998e-14
-4.5247375e-15
2.2868646e-14
-5.1046477e-15
2.8505785e-14
-5.6371405e-15
3.463026e-14
-6.1244745e-15
4.1198688e-14
-6.5684291e-15
4.8169117e-14
-6.9704293e-15
5.5500777e-14
-7.3316603e-15
6.3153933e-14
-7.6531564e-15
7.1089814e-14
-7.9358811e-15
7.9270596e-14
-8.1807826e-15
8.7659439e-14
-8.3888438e-15
9.6220549e-14
-8.5611104e-15
1.0491927e-13
-8.6987186e-15
1.1372217e-13
-8.8029029e-15
1.2259717e-13
-8.8750064e-15
1.3151365e-13
-8.9164756e-15
1.4044251e-13
-8.9288581e-15
1.4935629e-13
-8.9137887e-15
1.5822927e-13
-8.8729806e-15
1.6703748e-13
-8.8082063e-15
1.7575876e-13
-8.7212854e-15
1.8437283e-13
-8.6140643e-15
1.9286123e-13
-8.4884029e-15
2.0120739e-13
-8.3461553e-15
2.0939654e-13
-8.1891573e-15
2.1741575e-13
-8.0192097e-15
2.2525382e-13
-7.8380677e-15
2.3290125e-13
-7.6474275e-15
2.4035017e-13
-7.4489179e-15
2.4759426e-13
-7.2440909e-15
2.5462867e-13
-7.0344161e-15
2.6144995e-13
-6.8212736e-15
2.680559e-13
-6.6059524e-15
2.7444555e-13
-6.3896458e-15
2.80619e-13
-6.1734519e-15
2.8657737e-13
-5.9583713e-15
2.9232268e-13
-5.7453105e-15
2.9785776e-13
-5.5350806e-15
3.0318616e-13
-5.3284026e-15
3.0831207e-13
-5.1259075e-15
3.1324021e-13
-4.928143e-15
3.1797579e-13
-4.7355739e-15
3.2252438e-13
-4.5485901e-15
3.2689188e-13
-4.3675072e-15
3.3108446e-13
-4.1925753e-15
3.3510844e-13
-4.0239798e-15
3.3897029e-13
-3.8618501e-15
3.4267655e-13
-3.7062607e-15
3.4623379e-13
-3.5572397e-15
3.4964856e-13
-3.41477e-15
3.5292736e-13
-3.2787973e-15
3.5607659e-13
-3.1492317e-15
3.5910254e-13
-3.0259544e-15
3.6201136e-13
-2.9088201e-15
3.6480902e-13
-2.7976625e-15
3.6750132e-13
-2.6922967e-15
3.7009384e-13
-2.5925243e-15
3.7259198e-13
-2.4981353e-15
3.7500089e-13
-2.4089129e-15
3.7732553e-13
-2.3246347e-15
3.795706e-13
-2.2450772e-15
3.8174062e-13
-2.1700167e-15
3.8383985e-13
-2.0992329e-15
3.8587236e-13
-2.0325096e-15
3.87842e-13
-1.9696377e-15
3.8975242e-13
-1.910416e-15
3.9160707e-13
-1.8546525e-15
3.9340923e-13
-1.8021657e-15
3.9516202e-13
-1.7527853e-15
3.9686837e-13
-1.7063525e-15
3.9853109e-13
-1.6627207e-15
4.0015285e-13
-1.6217554e-15
4.0173618e-13
-1.5833342e-15
4.0328353e-13
-1.5473463e-15
4.0479722e-13
-1.5136924e-15
4.062795e-13
-1.4822838e-15
4.0773255e-13
-1.4530416e-15
4.0915844e-13
-1.425896e-15
4.1055923e-13
-1.4007851e-15
4.1193688e-13
-1.3776539e-15
4.1329334e-13
-1.3564532e-15
4.1463048e-13
-1.3371382e-15
4.1595014e-13
-1.3196676e-15
4.1725415e-13
-1.3040023e-15
4.1854425e-13
-1.2901042e-15
4.1982219e-13
-1.2779349e-15
4.2108964e-13
-1.2674554e-15
4.2234827e-13
-1.2586242e-15
4.2359967e-13
-1.2513975e-15
4.2484539e-13
-1.2457278e-15
4.2608696e-13
-1.2415637e-15
4.2732581e-13
-1.2388491e-15
4.2856333e-13
-1.2375242e-15
4.2980086e-13
-1.2375234e-15
4.3103964e-13
-1.2387776e-15
4.3228085e-13
-1.2412125e-15
4.335256e-13
-1.2447507e-15
4.3477491e-13
-1.2493106e-15
4.3602972e-13
-1.2548087e-15
4.3729088e-13
-1.2611587e-15
4.3855916e-13
-1.2682741e-15
4.3983522e-13
-1.2760671e-15
4.4111968e-13
-1.2844517e-15
4.4241302e-13
-1.293343e-15
4.4371568e-13
-1.3026593e-15
4.45028e-13
-1.3123221e-15
4.4635026e-13
-1.3222583e-15
4.4768266e-13
-1.3323998e-15
4.4902534e-13
-1.3426855e-15
4.503784e-13
-1.3530606e-15
4.5174188e-13
-1.363479e-15
4.5311578e-13
-1.3739019e-15
4.5450008e-13
-1.3842997e-15
4.5589473e-13
-1.3946514e-15
4.5729968e-13
-1.4049449e-15
4.5871485e-13
-1.4151769e-15
4.6014021e-13
-1.4253529e-15
4.6157569e-13
-1.4354867e-15
4.6302129e-13
-1.4456005e-15
4.6447702e-13
-1.4557236e-15
4.6594291e-13
-1.465893e-15
4.6741906e-13
-1.476152e-15
4.6890561e-13
-1.4865501e-15
4.7040275e-13
-1.4971428e-15
4.7191074e-13
-1.5079907e-15
4.7342991e-13
-1.5191603e-15
4.7496063e-13
-1.5307237e-15
4.7650339e-13
-1.5427593e-15
4.7805874e-13
-1.5553537e-15
4.7962735e-13
-1.5686034e-15
4.8120997e-13
-1.5826187e-15
4.8280749e-13
-1.5975286e-15
4.8442098e-13
-1.6134893e-15
4.8605168e-13
-1.6306956e-15
4.8770108e-13
-1.6493993e-15
4.8937102e-13
-1.6699371e-15
4.9106379e-13
-1.6927763e-15
4.9278239e-13
-1.7185937e-15
4.9453081e-13
-1.7484236e-15
4.9631477e-13
-1.7839561e-15
4.9814296e-13
-1.8281928e-15
5.0002994e-13
-1.8869789e-15
5.0200253e-13
-1.9725956e-15
5.0411447e-13
-2.1119331e-15
5.0648011e-13
-2.3656379e-15
5.0935867e-13
-2.8785651e-15
5.132551e-13
-3.896426e-15
-6.1169942e-15
7.7359767e-12
-7.9036465e-12
1.1024621e-11
-5.5931128e-12
1.2351206e-11
-2.841747e-12
1.2743408e-11
-9.2002565e-13
1.2511876e-11
2.3210722e-13
1.193692e-11
8.0130224e-13
1.1214676e-11
1.0294644e-12
1.0450681e-11
1.0863644e-12
9.6954488e-12
1.0652196e-12
8.970443e-12
1.0138514e-12
8.2825966e-12
9.5475478e-13
7.6325554e-12
8.9676824e-13
7.0188178e-12
8.4243681e-13
6.4394731e-12
7.9188221e-13
5.8928208e-12
7.4447159e-13
5.3775283e-12
6.9946828e-13
4.8926059e-12
6.5625668e-13
4.4373221e-12
6.1439422e-13
4.0111084e-12
5.7360282e-13
3.6134696e-12
5.3374447e-13
3.2439091e-12
4.9479387e-13
2.9018692e-12
4.5681108e-13
2.5866896e-12
4.1991538e-13
2.297582e-12
3.8426091e-13
2.03362e-12
3.5001514e-13
1.7937426e-12
3.1734093e-13
1.5767681e-12
2.8638247e-13
1.3814152e-12
2.5725538e-13
1.2063291e-12
2.3004072e-13
1.05011e-12
2.0478252e-13
9.1134071e-13
1.8148817e-13
7.8861357e-13
1.6013107e-13
6.8055335e-13
1.4065483e-13
5.85837e-13
1.2297839e-13
5.0320913e-13
1.0700152e-13
4.314933e-13
9.2610332e-14
3.6959948e-13
7.9682413e-14
3.1652793e-13
6.8091444e-14
2.7137004e-13
5.7711129e-14
2.333067e-13
4.8418424e-14
2.0160462e-13
4.0096048e-14
1.7561123e-13
3.263433e-14
1.5474855e-13
2.593244e-14
1.3850641e-13
1.9899112e-14
1.2643544e-13
1.4452925e-14
1.1813999e-13
9.5222668e-15
1.1327114e-13
5.0451287e-15
1.1151972e-13
9.6881886e-16
1.1261209e-13
-2.7532464e-15
1.1630532e-13
-6.1609477e-15
1.2238027e-13
-9.2853243e-15
1.3063748e-13
-1.2151741e-14
1.4089409e-13
-1.4781348e-14
1.52981e-13
-1.7191558e-14
1.6674047e-13
-1.9396609e-14
1.8202412e-13
-2.1408125e-14
1.9869134e-13
-2.3235649e-14
2.1660804e-13
-2.4887138e-14
2.3564577e-13
-2.6369388e-14
2.5568101e-13
-2.7688393e-14
2.7659477e-13
-2.8849647e-14
2.9827237e-13
-2.9858377e-14
3.2060325e-13
-3.0719734e-14
3.4348107e-13
-3.1438928e-14
3.6680368e-13
-3.2021332e-14
3.9047332e-13
-3.247254e-14
4.1439672e-13
-3.2798408e-14
4.384853e-13
-3.3005063e-14
4.6265533e-13
-3.3098889e-14
4.8682806e-13
-3.3086512e-14
5.1092983e-13
-3.2974755e-14
5.3489222e-13
-3.2770598e-14
5.5865206e-13
-3.2481127e-14
5.8215148e-13
-3.2113482e-14
6.0533788e-13
-3.1674803e-14
6.281639e-13
-3.1172177e-14
6.5058733e-13
-3.0612588e-14
6.7257099e-13
-3.000287e-14
6.9408259e-13
-2.9349665e-14
7.1509454e-13
-2.8659384e-14
7.355838e-13
-2.7938172e-14
7.5553159e-13
-2.7191886e-14
7.7492324e-13
-2.6426062e-14
7.9374787e-13
-2.5645909e-14
8.1199821e-13
-2.4856287e-14
8.2967027e-13
-2.4061702e-14
8.4676312e-13
-2.3266302e-14
8.6327862e-13
-2.2473877e-14
8.7922117e-13
-2.1687859e-14
8.9459742e-13
-2.0911333e-14
9.0941606e-13
-2.0147042e-14
9.2368755e-13
-1.9397399e-14
9.3742391e-13
-1.86645e-14
9.5063848e-13
-1.795014e-14
9.6334571e-13
-1.7255826e-14
9.75561e-13
-1.6582795e-14
9.8730045e-13
-1.593203e-14
9.9858075e-13
-1.5304281e-14
1.009419e-12
-1.4700079e-14
1.0198325e-12
-1.4119758e-14
1.0298387e-12
-1.3563467e-14
1.0394551e-12
-1.3031194e-14
1.0486991e-12
-1.2522781e-14
1.0575878e-12
-1.2037939e-14
1.0661381e-12
-1.1576267e-14
1.0743666e-12
-1.1137264e-14
1.0822893e-12
-1.072035e-14
1.0899218e-12
-1.0324874e-14
1.0972794e-12
-9.9501324e-15
1.1043767e-12
-9.5953773e-15
1.1112276e-12
-9.2598322e-15
1.1178457e-12
-8.9427014e-15
1.1242438e-12
-8.64318e-15
1.1304342e-12
-8.3604634e-15
1.1364287e-12
-8.0937556e-15
1.1422385e-12
-7.8422771e-15
1.1478741e-12
-7.6052703e-15
1.1533457e-12
-7.3820063e-15
1.1586629e-12
-7.1717886e-15
1.1638347e-12
-6.9739575e-15
1.1688698e-12
-6.7878924e-15
1.1737764e-12
-6.6130143e-15
1.1785625e-12
-6.4487868e-15
1.1832355e-12
-6.2947161e-15
1.1878025e-12
-6.1503512e-15
1.1922704e-12
-6.0152825e-15
1.1966459e-12
-5.88914e-15
1.2009352e-12
-5.771591e-15
1.2051445e-12
-5.6623376e-15
1.2092797e-12
-5.5611129e-15
1.2133466e-12
-5.4676777e-15
1.2173507e-12
-5.3818166e-15
1.2212976e-12
-5.3033337e-15
1.2251925e-12
-5.2320486e-15
1.2290407e-12
-5.167792e-15
1.2328471e-12
-5.1104019e-15
1.2366167e-12
-5.0597189e-15
1.2403543e-12
-5.0155831e-15
1.2440647e-12
-4.9778304e-15
1.2477524e-12
-4.9462893e-15
1.2514217e-12
-4.9207781e-15
1.2550771e-12
-4.901103e-15
1.2587226e-12
-4.8870563e-15
1.2623622e-12
-4.878415e-15
1.2659996e-12
-4.8749403e-15
1.2696385e-12
-4.8763779e-15
1.2732821e-12
-4.8824579e-15
1.2769338e-12
-4.8928964e-15
1.2805965e-12
-4.9073966e-15
1.2842728e-12
-4.9256513e-15
1.2879654e-12
-4.9473448e-15
1.2916764e-12
-4.9721565e-15
1.2954078e-12
-4.9997629e-15
1.2991616e-12
-5.0298423e-15
1.3029392e-12
-5.0620768e-15
1.3067421e-12
-5.0961573e-15
1.3105712e-12
-5.1317859e-15
1.3144275e-12
-5.1686801e-15
1.3183119e-12
-5.2065755e-15
1.3222247e-12
-5.2452297e-15
1.3261664e-12
-5.2844239e-15
1.3301373e-12
-5.3239666e-15
1.3341375e-12
-5.3636944e-15
1.3381671e-12
-5.4034746e-15
1.342226e-12
-5.4432054e-15
1.3463142e-12
-5.4828173e-15
1.3504315e-12
-5.5222727e-15
1.3545779e-12
-5.5615657e-15
1.3587533e-12
-5.6007218e-15
1.3629576e-12
-5.6397961e-15
1.3671908e-12
-5.6788722e-15
1.3714532e-12
-5.7180608e-15
1.3757448e-12
-5.7574971e-15
1.380066e-12
-5.7973399e-15
1.3844172e-12
-5.8377689e-15
1.388799e-12
-5.8789843e-15
1.3932122e-12
-5.9212051e-15
1.3976578e-12
-5.9646696e-15
1.4021367e-12
-6.0096362e-15
1.4066503e-12
-6.0563869e-15
1.4112002e-12
-6.1052319e-15
1.4157881e-12
-6.1565189e-15
1.4204161e-12
-6.210646e-15
1.4250867e-12
-6.2680821e-15
1.4298026e-12
-6.3293968e-15
1.4345672e-12
-6.3953061e-15
1.4393845e-12
-6.4667403e-15
1.4442596e-12
-6.5449519e-15
1.4491985e-12
-6.6316884e-15
1.4542094e-12
-6.7294885e-15
1.4593032e-12
-6.842214e-15
1.4644953e-12
-6.9760739e-15
1.4698088e-12
-7.1417127e-15
1.4752805e-12
-7.3586952e-15
1.4809729e-12
-7.665037e-15
1.4869973e-12
-8.1362964e-15
1.4935591e-12
-8.9274656e-15
1.5010603e-12
-1.0379769e-14
1.5101749e-12
-1.3010959e-14
-1.6529958e-14
4.8010173e-11
-5.1181929e-13
4.3503233e-11
-1.0861727e-12
4.0699072e-11
-3.7586474e-14
3.8709389e-11
1.069657e-12
3.7005029e-11
1.9364674e-12
3.5293168e-11
2.513163e-12
3.3501928e-11
2.8207044e-12
3.1650359e-11
2.9379335e-12
2.9775299e-11
2.9402796e-12
2.7910327e-11
2.8788235e-12
2.6080088e-11
2.7849944e-12
2.4300049e-11
2.6768066e-12
2.257898e-11
2.5635058e-12
2.0921668e-11
2.4491949e-12
1.9330851e-11
2.3352884e-12
1.780837e-11
2.2219491e-12
1.6355751e-11
2.1088755e-12
1.4974429e-11
1.9957162e-12
1.3665763e-11
1.8822696e-12
1.2430944e-11
1.7685628e-12
1.1270876e-11
1.6548619e-12
1.0186044e-11
1.5416431e-12
9.1764159e-12
1.4295437e-12
8.2413744e-12
1.3193024e-12
7.3796904e-12
1.2116992e-12
6.5895311e-12
1.1075002e-12
5.8685034e-12
1.0074102e-12
5.2137216e-12
9.1203712e-13
4.6218948e-12
8.2186752e-13
4.0894232e-12
7.372542e-13
3.6124978e-12
6.5841354e-13
3.1871975e-12
5.8543131e-13
2.8095776e-12
5.1827473e-13
2.4757473e-12
4.5680873e-13
2.1819344e-12
4.0081438e-13
1.9245367e-12
3.5000803e-13
1.7001593e-12
3.0405984e-13
1.5056399e-12
2.6261082e-13
1.3380632e-12
2.2528787e-13
1.1947652e-12
1.917164e-13
1.0733307e-12
1.6153055e-13
9.7158395e-13
1.3438109e-13
8.8757536e-13
1.0994104e-13
8.1956498e-13
8.790949e-14
7.6600424e-13
6.801366e-14
7.2551685e-13
5.0009663e-14
6.9687981e-13
3.3682159e-14
6.7900555e-13
1.8843084e-14
6.709221e-13
5.3302005e-15
6.7175623e-13
-6.9950741e-15
6.8072141e-13
-1.8250504e-14
6.9710521e-13
-2.8535549e-14
7.2025713e-13
-3.7933267e-14
7.4957904e-13
-4.6513468e-14
7.8451716e-13
-5.4334729e-14
8.2455526e-13
-6.1446231e-14
8.6920912e-13
-6.7889511e-14
9.1802204e-13
-7.3700058e-14
9.7056136e-13
-7.8908706e-14
1.0264158e-12
-8.3542821e-14
1.0851934e-12
-8.762729e-14
1.1465204e-12
-9.1185331e-14
1.2100398e-12
-9.4239138e-14
1.2754112e-12
-9.681038e-14
1.3423105e-12
-9.8920572e-14
1.4104293e-12
-1.0059134e-13
1.4794754e-12
-1.0184457e-13
1.5491729e-12
-1.0270254e-13
1.6192619e-12
-1.0318788e-13
1.689499e-12
-1.033236e-13
1.7596572e-12
-1.0313299e-13
1.8295261e-12
-1.0263955e-13
1.8989119e-12
-1.0186686e-13
1.9676368e-12
-1.0083841e-13
2.0355396e-12
-9.9577566e-14
2.1024747e-12
-9.8107326e-14
2.1683124e-12
-9.6450261e-14
2.2329379e-12
-9.4628363e-14
2.2962512e-12
-9.2662935e-14
2.3581663e-12
-9.057449e-14
2.4186107e-12
-8.8382664e-14
2.477525e-12
-8.6106137e-14
2.5348615e-12
-8.3762574e-14
2.5905842e-12
-8.1368574e-14
2.6446675e-12
-7.8939643e-14
2.697096e-12
-7.6490162e-14
2.7478631e-12
-7.4033387e-14
2.7969706e-12
-7.1581445e-14
2.8444281e-12
-6.9145345e-14
2.8902518e-12
-6.6735e-14
2.934464e-12
-6.4359254e-14
2.9770925e-12
-6.2025914e-14
3.0181698e-12
-5.9741793e-14
3.0577324e-12
-5.7512753e-14
3.0958204e-12
-5.5343751e-14
3.1324765e-12
-5.3238894e-14
3.1677459e-12
-5.1201491e-14
3.2016757e-12
-4.9234106e-14
3.2343143e-12
-4.7338615e-14
3.2657108e-12
-4.5516261e-14
3.295915e-12
-4.3767713e-14
3.324977e-12
-4.2093116e-14
3.3529463e-12
-4.0492148e-14
3.3798724e-12
-3.8964073e-14
3.405804e-12
-3.750779e-14
3.4307886e-12
-3.6121886e-14
3.4548729e-12
-3.4804678e-14
3.4781023e-12
-3.3554262e-14
3.5005207e-12
-3.2368558e-14
3.5221707e-12
-3.1245341e-14
3.5430932e-12
-3.0182288e-14
3.5633275e-12
-2.9177008e-14
3.5829114e-12
-2.8227076e-14
3.6018809e-12
-2.7330058e-14
3.6202707e-12
-2.6483545e-14
3.6381136e-12
-2.5685167e-14
3.655441e-12
-2.4932622e-14
3.6722827e-12
-2.4223687e-14
3.6886671e-12
-2.3556236e-14
3.7046214e-12
-2.292825e-14
3.7201713e-12
-2.2337827e-14
3.7353415e-12
-2.1783188e-14
3.7501554e-12
-2.126268e-14
3.7646355e-12
-2.0774778e-14
3.7788032e-12
-2.0318083e-14
3.7926792e-12
-1.9891318e-14
3.8062834e-12
-1.9493324e-14
3.8196349e-12
-1.9123052e-14
3.8327521e-12
-1.8779556e-14
3.845653e-12
-1.8461979e-14
3.8583548e-12
-1.8169547e-14
3.8708746e-12
-1.7901553e-14
3.8832286e-12
-1.7657348e-14
3.8954329e-12
-1.7436324e-14
3.907503e-12
-1.7237907e-14
3.9194541e-12
-1.706154e-14
3.9313011e-12
-1.6906673e-14
3.9430582e-12
-1.6772752e-14
3.9547396e-12
-1.6659208e-14
3.9663588e-12
-1.6565449e-14
3.9779289e-12
-1.6490853e-14
3.9894625e-12
-1.6434759e-14
4.0009719e-12
-1.6396465e-14
4.0124687e-12
-1.6375224e-14
4.023964e-12
-1.6370242e-14
4.0354683e-12
-1.6380682e-14
4.0469916e-12
-1.6405661e-14
4.0585429e-12
-1.6444256e-14
4.070131e-12
-1.6495512e-14
4.0817638e-12
-1.6558444e-14
4.0934485e-12
-1.6632047e-14
4.1051917e-12
-1.6715306e-14
4.1169991e-12
-1.6807201e-14
4.128876e-12
-1.6906725e-14
4.1408268e-12
-1.7012888e-14
4.1528554e-12
-1.712473e-14
4.1649649e-12
-1.7241331e-14
4.1771581e-12
-1.7361824e-14
4.1894369e-12
-1.7485401e-14
4.201803e-12
-1.7611324e-14
4.2142575e-12
-1.7738933e-14
4.2268012e-12
-1.7867653e-14
4.2394345e-12
-1.7996999e-14
4.2521576e-12
-1.8126578e-14
4.2649705e-12
-1.8256097e-14
4.277873e-12
-1.8385359e-14
4.290865e-12
-1.8514268e-14
4.3039463e-12
-1.8642823e-14
4.3171167e-12
-1.8771116e-14
4.3303762e-12
-1.8899331e-14
4.3437251e-12
-1.9027737e-14
4.3571637e-12
-1.9156681e-14
4.3706928e-12
-1.9286585e-14
4.3843134e-12
-1.941794e-14
4.3980269e-12
-1.9551297e-14
4.4118352e-12
-1.9687268e-14
4.4257405e-12
-1.9826518e-14
4.4397456e-12
-1.996977e-14
4.4538538e-12
-2.0117805e-14
4.4680688e-12
-2.0271473e-14
4.4823953e-12
-2.0431711e-14
4.4968384e-12
-2.0599566e-14
4.511404e-12
-2.0776241e-14
4.526099e-12
-2.0963153e-14
4.5409317e-12
-2.1162028e-14
4.5559114e-12
-2.1375042e-14
4.5710497e-12
-2.1605027e-14
4.5863605e-12
-2.18558e-14
4.6018615e-12
-2.2132683e-14
4.6175754e-12
-2.2443365e-14
4.6335326e-12
-2.2799377e-14
4.6497752e-12
-2.3218732e-14
4.6663643e-12
-2.3730759e-14
4.6833907e-12
-2.4385128e-14
4.7009941e-12
-2.5268371e-14
4.7193908e-12
-2.6533026e-14
4.7389041e-12
-2.8440791e-14
4.7599305e-12
-3.1406131e-14
4.7827379e-12
-3.5818388e-14
-4.1761207e-14
5.4681267e-11
2.0891388e-13
5.2972795e-11
6.2229966e-13
5.1359669e-11
1.5755391e-12
4.9893441e-11
2.5358846e-12
4.8519531e-11
3.3103774e-12
4.7136731e-11
3.8959636e-12
4.5656543e-11
4.3008919e-12
4.4043755e-11
4.5507216e-12
4.230199e-11
4.6820454e-12
4.045309e-11
4.727723e-12
3.8524914e-11
4.7131701e-12
3.6544789e-11
4.6569324e-12
3.4536699e-11
4.5715956e-12
3.252081e-11
4.4650839e-12
3.0513993e-11
4.3421052e-12
2.8530587e-11
4.2053547e-12
2.6583066e-11
4.0563968e-12
2.4682502e-11
3.8962804e-12
2.2838825e-11
3.7259461e-12
2.1060919e-11
3.5464687e-12
1.9356604e-11
3.3591773e-12
1.7732561e-11
3.1656862e-12
1.6194241e-11
2.9678637e-12
1.4745784e-11
2.7677589e-12
1.3389975e-11
2.5675084e-12
1.2128241e-11
2.369234e-12
1.0960704e-11
2.1749475e-12
9.8862724e-12
1.9864687e-12
8.9027764e-12
1.8053635e-12
8.0071265e-12
1.6329041e-12
7.1954891e-12
1.4700509e-12
6.4634662e-12
1.3174542e-12
5.8062694e-12
1.1754716e-12
5.2188804e-12
1.0441977e-12
4.6961937e-12
9.2350112e-13
4.2331365e-12
8.130652e-13
3.8247666e-12
7.124297e-13
3.4663471e-12
6.2103029e-13
3.1534005e-12
5.3823456e-13
2.8817435e-12
4.6337341e-13
2.6475067e-12
3.9576727e-13
2.4471407e-12
3.3474712e-13
2.2774112e-12
2.7967053e-13
2.1353875e-12
2.2993325e-13
2.0184243e-12
1.8497677e-13
1.9241413e-12
1.4429269e-13
1.8503992e-12
1.0742429e-13
1.7952762e-12
7.3966074e-14
1.7570444e-12
4.3561973e-14
1.734147e-12
1.5902309e-14
1.7251772e-12
-9.2806628e-15
1.7288583e-12
-3.2216607e-14
1.744028e-12
-5.3102992e-14
1.7696225e-12
-7.2107976e-14
1.8046636e-12
-8.9375882e-14
1.8482479e-12
-1.0503053e-13
1.899537e-12
-1.1917856e-13
1.9577495e-12
-1.319126e-13
2.0221548e-12
-1.4331403e-13
2.0920674e-12
-1.5345541e-13
2.1668427e-12
-1.6240255e-13
2.2458735e-12
-1.7021615e-13
2.3285876e-12
-1.7695322e-13
2.4144454e-12
-1.8266817e-13
2.5029384e-12
-1.8741364e-13
2.5935883e-12
-1.9124117e-13
2.6859453e-12
-1.9420159e-13
2.7795881e-12
-1.9634536e-13
2.8741229e-12
-1.9772271e-13
2.969183e-12
-1.9838368e-13
3.0644281e-12
-1.9837808e-13
3.159544e-12
-1.9775544e-13
3.254242e-12
-1.9656482e-13
3.3482582e-12
-1.9485466e-13
3.4413532e-12
-1.9267261e-13
3.5333112e-12
-1.9006531e-13
3.6239392e-12
-1.870782e-13
3.7130661e-12
-1.8375533e-13
3.8005424e-12
-1.801392e-13
3.8862385e-12
-1.7627061e-13
3.9700443e-12
-1.7218848e-13
4.051868e-12
-1.679298e-13
4.1316349e-12
-1.6352947e-13
4.2092866e-12
-1.5902027e-13
4.2847797e-12
-1.5443281e-13
4.3580851e-12
-1.4979547e-13
4.4291861e-12
-1.4513445e-13
4.4980784e-12
-1.404737e-13
4.5647681e-12
-1.3583504e-13
4.6292712e-12
-1.3123812e-13
4.6916125e-12
-1.2670052e-13
4.7518244e-12
-1.2223782e-13
4.8099462e-12
-1.1786366e-13
4.8660233e-12
-1.1358982e-13
4.9201059e-12
-1.0942633e-13
4.9722486e-12
-1.0538158e-13
5.0225095e-12
-1.0146238e-13
5.0709495e-12
-9.7674107e-14
5.1176316e-12
-9.4020784e-14
5.1626206e-12
-9.0505198e-14
5.2059819e-12
-8.7129011e-14
5.2477816e-12
-8.3892856e-14
5.2880859e-12
-8.0796448e-14
5.3269605e-12
-7.7838685e-14
5.3644705e-12
-7.5017745e-14
5.4006798e-12
-7.2331183e-14
5.4356511e-12
-6.9776024e-14
5.4694457e-12
-6.7348845e-14
5.502123e-12
-6.5045866e-14
5.5337407e-12
-6.2863021e-14
5.5643544e-12
-6.0796036e-14
5.5940179e-12
-5.8840491e-14
5.6227827e-12
-5.6991889e-14
5.6506984e-12
-5.5245709e-14
5.6778123e-12
-5.3597455e-14
5.7041698e-12
-5.2042707e-14
5.7298143e-12
-5.0577152e-14
5.7547873e-12
-4.9196629e-14
5.7791282e-12
-4.7897145e-14
5.8028748e-12
-4.6674907e-14
5.8260634e-12
-4.5526334e-14
5.8487282e-12
-4.4448069e-14
5.8709025e-12
-4.3436988e-14
5.892618e-12
-4.24902e-14
5.9139049e-12
-4.1605045e-14
5.9347927e-12
-4.0779089e-14
5.9553095e-12
-4.0010108e-14
5.9754825e-12
-3.9296082e-14
5.9953381e-12
-3.8635173e-14
6.0149019e-12
-3.8025709e-14
6.0341985e-12
-3.7466158e-14
6.053252e-12
-3.6955114e-14
6.072086e-12
-3.6491265e-14
6.090723e-12
-3.6073377e-14
6.1091854e-12
-3.5700263e-14
6.1274946e-12
-3.5370769e-14
6.1456717e-12
-3.5083743e-14
6.1637369e-12
-3.4838022e-14
6.1817101e-12
-3.463241e-14
6.1996104e-12
-3.4465664e-14
6.217456e-12
-3.4336479e-14
6.2352647e-12
-3.4243478e-14
6.2530535e-12
-3.4185206e-14
6.2708384e-12
-3.4160123e-14
6.2886347e-12
-3.4166607e-14
6.306457e-12
-3.4202951e-14
6.3243187e-12
-3.4267372e-14
6.3422325e-12
-3.4358018e-14
6.3602099e-12
-3.4472978e-14
6.3782618e-12
-3.4610297e-14
6.3963977e-12
-3.4767992e-14
6.4146265e-12
-3.4944067e-14
6.4329558e-12
-3.5136532e-14
6.4513925e-12
-3.5343426e-14
6.4699425e-12
-3.5562835e-14
6.4886107e-12
-3.5792911e-14
6.5074012e-12
-3.6031894e-14
6.5263175e-12
-3.627813e-14
6.5453622e-12
-3.6530091e-14
6.5645373e-12
-3.6786388e-14
6.5838441e-12
-3.7045786e-14
6.6032837e-12
-3.7307219e-14
6.6228565e-12
-3.7569795e-14
6.6425627e-12
-3.7832808e-14
6.6624024e-12
-3.8095736e-14
6.6823752e-12
-3.8358246e-14
6.7024812e-12
-3.8620194e-14
6.72272e-12
-3.8881616e-14
6.7430916e-12
-3.9142727e-14
6.7635961e-12
-3.9403907e-14
6.7842341e-12
-3.9665697e-14
6.8050062e-12
-3.992878e-14
6.8259136e-12
-4.0193977e-14
6.8469579e-12
-4.0462229e-14
6.8681412e-12
-4.0734589e-14
6.8894661e-12
-4.1012213e-14
6.910936e-12
-4.1296353e-14
6.9325545e-12
-4.1588359e-14
6.9543264e-12
-4.1889682e-14
6.9762568e-12
-4.2201894e-14
6.9983518e-12
-4.2526718e-14
7.0206184e-12
-4.2866071e-14
7.0430643e-12
-4.3222144e-14
7.0656986e-12
-4.3597511e-14
7.0885319e-12
-4.3995289e-14
7.1115762e-12
-4.4419387e-14
7.1348461e-12
-4.4874858e-14
7.1583587e-12
-4.5368446e-14
7.1821354e-12
-4.5909427e-14
7.206203e-12
-4.6510937e-14
7.2305958e-12
-4.7192126e-14
7.2553588e-12
-4.7981728e-14
7.2805521e-12
-4.8924057e-14
7.306256e-12
-5.0089032e-14
7.3325759e-12
-5.158834e-14
7.3596431e-12
-5.3600212e-14
7.3875957e-12
-5.6393359e-14
7.416517e-12
-6.0327485e-14
7.4462985e-12
-6.5599887e-14
-7.262836e-14
5.5269613e-11
3.4130042e-13
5.4806825e-11
1.0850883e-12
5.4382124e-11
2.0002394e-12
5.3966373e-11
2.9516359e-12
5.3478611e-11
3.7981391e-12
5.2868781e-11
4.5057937e-12
5.2096297e-11
5.0733763e-12
5.1137401e-11
5.5096176e-12
4.9986818e-11
5.8326282e-12
4.8651915e-11
6.0626263e-12
4.7148062e-11
6.2170234e-12
4.5495396e-11
6.3095983e-12
4.3716256e-11
6.3507349e-12
4.1833488e-11
6.3478522e-12
3.9869549e-11
6.3060444e-12
3.7846124e-11
6.22878e-12
3.5783993e-11
6.1185278e-12
3.3702998e-11
5.9772753e-12
3.1622009e-11
5.8069354e-12
2.9558841e-11
5.6096361e-12
2.753012e-11
5.3878984e-12
2.5551094e-11
5.1447125e-12
2.3635431e-11
4.8835267e-12
2.1795022e-11
4.6081679e-12
2.0039818e-11
4.3227119e-12
1.8377726e-11
4.0313264e-12
1.6814568e-11
3.7381056e-12
1.5354122e-11
3.446914e-12
1.3998232e-11
3.1612538e-12
1.2746971e-11
2.8841648e-12
1.1598862e-11
2.61816e-12
1.0551118e-11
2.3651983e-12
9.5998999e-12
2.1266898e-12
8.7405695e-12
1.9035281e-12
7.9679287e-12
1.6961419e-12
7.2764342e-12
1.5045596e-12
6.6603836e-12
1.3284804e-12
6.114069e-12
1.1673449e-12
5.6319002e-12
1.0204034e-12
5.2084967e-12
8.867769e-13
4.8387535e-12
7.6551045e-13
4.5178834e-12
6.5561722e-13
4.24144e-12
5.5611398e-13
4.0053251e-12
4.6604811e-13
3.8057848e-12
3.8451704e-13
3.6393963e-12
3.1068124e-13
3.5030488e-12
2.4377174e-13
3.3939215e-12
1.830934e-13
3.3094586e-12
1.2802489e-13
3.247345e-12
7.8015957e-14
3.2054814e-12
3.2582921e-14
3.1819614e-12
-8.6966594e-15
3.1750473e-12
-4.6188859e-14
3.1831526e-12
-8.021327e-14
3.2048239e-12
-1.1104717e-13
3.2387262e-12
-1.3893284e-13
3.2836296e-12
-1.64082e-13
3.3383978e-12
-1.8668075e-13
3.4019777e-12
-2.0689396e-13
3.4733915e-12
-2.2486919e-13
3.5517291e-12
-2.4074014e-13
3.6361424e-12
-2.5462948e-13
3.7258404e-12
-2.6665119e-13
3.8200847e-12
-2.769125e-13
3.9181865e-12
-2.8551545e-13
4.0195034e-12
-2.9255805e-13
4.123437e-12
-2.9813522e-13
4.229431e-12
-3.0233937e-13
4.3369692e-12
-3.0526088e-13
4.4455738e-12
-3.069883e-13
4.5548042e-12
-3.0760851e-13
4.6642555e-12
-3.0720669e-13
4.7735569e-12
-3.0586624e-13
4.8823709e-12
-3.0366867e-13
4.9903917e-12
-3.0069338e-13
5.0973439e-12
-2.9701751e-13
5.2029814e-12
-2.927157e-13
5.3070859e-12
-2.878599e-13
5.4094659e-12
-2.8251918e-13
5.5099549e-12
-2.7675956e-13
5.6084102e-12
-2.7064384e-13
5.7047119e-12
-2.642315e-13
5.798761e-12
-2.5757857e-13
5.8904783e-12
-2.5073759e-13
5.9798031e-12
-2.4375755e-13
6.0666915e-12
-2.3668387e-13
6.1511155e-12
-2.2955842e-13
6.2330613e-12
-2.2241956e-13
6.3125285e-12
-2.1530219e-13
6.3895282e-12
-2.0823782e-13
6.4640823e-12
-2.0125468e-13
6.5362224e-12
-1.9437784e-13
6.605988e-12
-1.8762929e-13
6.6734263e-12
-1.8102815e-13
6.7385907e-12
-1.7459073e-13
6.8015399e-12
-1.6833078e-13
6.8623371e-12
-1.6225955e-13
6.921049e-12
-1.5638604e-13
6.9777454e-12
-1.5071712e-13
7.0324978e-12
-1.4525768e-13
7.0853797e-12
-1.4001086e-13
7.136465e-12
-1.3497815e-13
7.1858281e-12
-1.301596e-13
7.2335434e-12
-1.2555394e-13
7.2796844e-12
-1.2115877e-13
7.3243239e-12
-1.169707e-13
7.3675334e-12
-1.1298546e-13
7.4093826e-12
-1.0919809e-13
7.4499398e-12
-1.0560304e-13
7.489271e-12
-1.0219428e-13
7.5274405e-12
-9.896546e-14
7.5645099e-12
-9.5909969e-14
7.6005391e-12
-9.3021061e-14
7.6355853e-12
-9.0291933e-14
7.6697037e-12
-8.7715807e-14
7.702947e-12
-8.5286004e-14
7.7353658e-12
-8.2996002e-14
7.7670087e-12
-8.0839491e-14
7.7979219e-12
-7.8810416e-14
7.8281501e-12
-7.6903012e-14
7.8577355e-12
-7.5111831e-14
7.8867192e-12
-7.3431759e-14
7.9151403e-12
-7.1858029e-14
7.9430363e-12
-7.0386219e-14
7.9704435e-12
-6.9012252e-14
7.9973968e-12
-6.7732384e-14
8.0239299e-12
-6.6543187e-14
8.0500753e-12
-6.5441528e-14
8.0758647e-12
-6.4424544e-14
8.1013286e-12
-6.348961e-14
8.1264968e-12
-6.2634311e-14
8.151398e-12
-6.1856403e-14
8.1760606e-12
-6.1153781e-14
8.2005116e-12
-6.0524441e-14
8.2247778e-12
-5.9966445e-14
8.2488849e-12
-5.9477888e-14
8.2728581e-12
-5.9056864e-14
8.2967215e-12
-5.8701437e-14
8.3204987e-12
-5.8409615e-14
8.3442123e-12
-5.8179323e-14
8.3678842e-12
-5.8008389e-14
8.3915353e-12
-5.7894527e-14
8.4151854e-12
-5.783533e-14
8.4388536e-12
-5.782826e-14
8.4625576e-12
-5.7870654e-14
8.4863144e-12
-5.7959724e-14
8.5101396e-12
-5.8092571e-14
8.5340478e-12
-5.8266197e-14
8.5580523e-12
-5.8477525e-14
8.5821654e-12
-5.8723419e-14
8.6063982e-12
-5.900071e-14
8.6307603e-12
-5.9306225e-14
8.6552606e-12
-5.9636816e-14
8.6799066e-12
-5.9989388e-14
8.7047047e-12
-6.0360938e-14
8.7296603e-12
-6.0748578e-14
8.754778e-12
-6.1149569e-14
8.7800612e-12
-6.1561351e-14
8.8055127e-12
-6.1981569e-14
8.8311344e-12
-6.2408096e-14
8.8569277e-12
-6.2839054e-14
8.8828933e-12
-6.3272833e-14
8.9090316e-12
-6.3708102e-14
8.9353426e-12
-6.4143819e-14
8.9618261e-12
-6.4579234e-14
8.9884817e-12
-6.5013892e-14
9.0153092e-12
-6.5447625e-14
9.0423081e-12
-6.5880549e-14
9.0694784e-12
-6.6313049e-14
9.0968203e-12
-6.6745762e-14
9.1243342e-12
-6.7179565e-14
9.1520209e-12
-6.7615553e-14
9.179882e-12
-6.8055017e-14
9.2079192e-12
-6.8499429e-14
9.236135e-12
-6.895042e-14
9.2645325e-12
-6.9409766e-14
9.2931156e-12
-6.987938e-14
9.3218885e-12
-7.0361306e-14
9.3508566e-12
-7.0857729e-14
9.3800257e-12
-7.1370996e-14
9.4094026e-12
-7.1903659e-14
9.4389951e-12
-7.2458538e-14
9.4688118e-12
-7.3038827e-14
9.4988625e-12
-7.3648246e-14
9.5291585e-12
-7.4291259e-14
9.5597125e-12
-7.4973399e-14
9.5905394e-12
-7.5701734e-14
9.6216565e-12
-7.6485554e-14
9.6530844e-12
-7.7337389e-14
9.684848e-12
-7.8274545e-14
9.7169774e-12
-7.9321439e-14
9.7495088e-12
-8.0513205e-14
9.782486e-12
-8.1901228e-14
9.8159585e-12
-8.3561493e-14
9.8499765e-12
-8.5606331e-14
9.8845765e-12
-8.8200224e-14
9.9197497e-12
-9.1566629e-14
9.9554067e-12
-9.5984406e-14
9.9913054e-12
-1.0149861e-13
-1.0892799e-13
5.5347336e-11
3.9596394e-13
5.5226645e-11
1.2057795e-12
5.5141995e-11
2.0848902e-12
5.5098548e-11
2.9950822e-12
5.5041162e-11
3.8555254e-12
5.4917619e-11
4.6293366e-12
5.4682766e-11
5.308229e-12
5.4300427e-11
5.891957e-12
5.3746838e-11
6.3862176e-12
5.3009474e-11
6.7999901e-12
5.2084554e-11
7.1419428e-12
5.097509e-11
7.4190623e-12
4.9689299e-11
7.6365265e-12
4.8239305e-11
7.7978461e-12
4.6640175e-11
7.9051745e-12
4.4909213e-11
7.9597421e-12
4.306543e-11
7.9623107e-12
4.1129111e-11
7.9135938e-12
3.9121426e-11
7.8146208e-12
3.7064035e-11
7.6670265e-12
3.4978682e-11