/*--------------------------------*- C++ -*----------------------------------*\
| =========                 |                                                 |
| \\      /  F ield         | OpenFOAM: The Open Source CFD Toolbox           |
|  \\    /   O peration     | Version:  2406                                  |
|   \\  /    A nd           | Website:  www.openfoam.com                      |
|    \\/     M anipulation  |                                                 |
\*---------------------------------------------------------------------------*/
FoamFile
{
    version     2.0;
    format      ascii;
    arch        "LSB;label=32;scalar=64";
    class       surfaceScalarField;
    location    "2500";
    object      phi;
}
// * * * * * * * * * * * * * * * * * * * * * * * * * * * * * * * * * * * * * //

dimensions      [0 3 -1 0 0 0 0];

oriented        oriented;

internalField   nonuniform List<scalar> 
22543
(
-2.4313927e-14
2.4313927e-14
-7.9347793e-14
5.5033866e-14
-1.3953496e-13
6.0187171e-14
-1.8701829e-13
4.7483326e-14
-2.1496071e-13
2.7942419e-14
-2.235825e-13
8.6217874e-15
-2.1660566e-13
-6.976841e-15
-1.9884234e-13
-1.7763313e-14
-1.7484815e-13
-2.399419e-14
-1.4832029e-13
-2.6527862e-14
-1.2194579e-13
-2.63745e-14
-9.7482519e-14
-2.4463274e-14
-7.5934681e-14
-2.1547838e-14
-5.7746324e-14
-1.8188358e-14
-4.2975923e-14
-1.4770401e-14
-3.1437942e-14
-1.1537981e-14
-2.2809104e-14
-8.6288384e-15
-1.670382e-14
-6.1052838e-15
-1.2724907e-14
-3.9789137e-15
-1.0495222e-14
-2.2296854e-15
-9.6754849e-15
-8.1973727e-16
-9.9727198e-15
2.9723457e-16
-1.1142318e-14
1.1695975e-15
-1.2986085e-14
1.8437666e-15
-1.5348094e-14
2.3620094e-15
-1.810933e-14
2.7612351e-15
-2.1181898e-14
3.0725675e-15
-2.4503349e-14
3.3214512e-15
-2.8031386e-14
3.5280365e-15
-3.1739135e-14
3.7077487e-15
-3.5611072e-14
3.8719364e-15
-3.9639612e-14
4.0285395e-15
-4.3822347e-14
4.1827351e-15
-4.8159883e-14
4.3375353e-15
-5.2654204e-14
4.4943208e-15
-5.7307506e-14
4.6533018e-15
-6.2121411e-14
4.8139044e-15
-6.7096495e-14
4.9750835e-15
-7.2232062e-14
5.1355668e-15
-7.75261e-14
5.2940372e-15
-8.297536e-14
5.4492604e-15
-8.8575529e-14
5.6001679e-15
-9.4321432e-14
5.7459023e-15
-1.0020727e-13
5.8858347e-15
-1.0622683e-13
6.0195603e-15
-1.1237371e-13
6.1468803e-15
-1.1864148e-13
6.2677746e-15
-1.2502385e-13
6.3823695e-15
-1.3151476e-13
6.490905e-15
-1.3810846e-13
6.5937034e-15
-1.447996e-13
6.6911403e-15
-1.5158323e-13
6.7836205e-15
-1.5845478e-13
6.8715578e-15
-1.6541014e-13
6.955359e-15
-1.7244556e-13
7.0354126e-15
-1.7955764e-13
7.1120809e-15
-1.8674333e-13
7.1856948e-15
-1.9399989e-13
7.2565522e-15
-2.013248e-13
7.3249173e-15
-2.0871583e-13
7.391022e-15
-2.161709e-13
7.455068e-15
-2.2368813e-13
7.5172298e-15
-2.3126578e-13
7.577658e-15
-2.3890227e-13
7.6364823e-15
-2.4659608e-13
7.6938148e-15
-2.5434584e-13
7.7497536e-15
-2.6215022e-13
7.8043848e-15
-2.7000801e-13
7.8577857e-15
-2.7791804e-13
7.9100264e-15
-2.8587921e-13
7.9611723e-15
-2.938905e-13
8.0112853e-15
-3.0195092e-13
8.0604254e-15
-3.1005958e-13
8.1086514e-15
-3.182156e-13
8.1560224e-15
-3.264182e-13
8.2025977e-15
-3.3466664e-13
8.248438e-15
-3.4296024e-13
8.2936054e-15
-3.5129841e-13
8.3381637e-15
-3.5968059e-13
8.3821783e-15
-3.681063e-13
8.4257169e-15
-3.7657515e-13
8.4688483e-15
-3.850868e-13
8.5116431e-15
-3.9364097e-13
8.5541729e-15
-4.0223748e-13
8.5965103e-15
-4.1087621e-13
8.6387281e-15
-4.1955711e-13
8.680899e-15
-4.2828021e-13
8.7230946e-15
-4.370456e-13
8.7653854e-15
-4.4585344e-13
8.807839e-15
-4.5470396e-13
8.8505202e-15
-4.6359745e-13
8.8934891e-15
-4.7253425e-13
8.936801e-15
-4.8151475e-13
8.9805041e-15
-4.905394e-13
9.0246393e-15
-4.9960863e-13
9.0692378e-15
-5.0872296e-13
9.1143207e-15
-5.1788286e-13
9.1598961e-15
-5.2708882e-13
9.2059589e-15
-5.3634131e-13
9.2524875e-15
-5.4564075e-13
9.2994432e-15
-5.5498752e-13
9.3467669e-15
-5.643819e-13
9.3943786e-15
-5.7382408e-13
9.4421731e-15
-5.833141e-13
9.4900201e-15
-5.9285186e-13
9.5377594e-15
-6.0243707e-13
9.5852008e-15
-6.1206919e-13
9.6321192e-15
-6.2174745e-13
9.6782545e-15
-6.3147075e-13
9.7233066e-15
-6.4123769e-13
9.7669351e-15
-6.5104645e-13
9.8087541e-15
-6.6089478e-13
9.848333e-15
-6.7077997e-13
9.8851897e-15
-6.8069877e-13
9.9187925e-15
-6.9064732e-13
9.9485538e-15
-7.0062116e-13
9.9738315e-15
-7.1061508e-13
9.9939232e-15
-7.2062316e-13
1.0008068e-14
-7.306386e-13
1.0015441e-14
-7.4065376e-13
1.0015156e-14
-7.5066003e-13
1.0006261e-14
-7.6064777e-13
9.9877404e-15
-7.7060629e-13
9.9585108e-15
-7.8052372e-13
9.9174267e-15
-7.90387e-13
9.8632753e-15
-8.0018178e-13
9.7947833e-15
-8.098924e-13
9.7106138e-15
-8.1950177e-13
9.6093736e-15
-8.2899138e-13
9.4896116e-15
-8.3834121e-13
9.3498272e-15
-8.4752968e-13
9.1884708e-15
-8.5653363e-13
9.003953e-15
-8.6532828e-13
8.7946462e-15
-8.7388717e-13
8.5588955e-15
-8.821822e-13
8.2950228e-15
-8.9018354e-13
8.0013393e-15
-8.9785969e-13
7.6761527e-15
-9.0517748e-13
7.3177825e-15
-9.1210205e-13
6.924568e-15
-9.1859694e-13
6.4948841e-15
-9.2462409e-13
6.0271481e-15
-9.3014394e-13
5.5198386e-15
-9.3511545e-13
4.971504e-15
-9.3949623e-13
4.3807832e-15
-9.4324265e-13
3.7464137e-15
-9.4630991e-13
3.0672551e-15
-9.486522e-13
2.3422892e-15
-9.5022286e-13
1.570655e-15
-9.5097452e-13
7.5166858e-16
-9.508593e-13
-1.1522264e-16
-9.4982895e-13
-1.0303535e-15
-9.478351e-13
-1.9938478e-15
-9.4482947e-13
-3.005634e-15
-9.4076406e-13
-4.0654158e-15
-9.3559139e-13
-5.1726713e-15
-9.2926476e-13
-6.3266366e-15
-9.2173845e-13
-7.5263116e-15
-9.12968e-13
-8.7704479e-15
-9.0291044e-13
-1.0057558e-14
-8.9152453e-13
-1.1385909e-14
-8.7877099e-13
-1.2753536e-14
-8.6461274e-13
-1.4158244e-14
-8.4901512e-13
-1.5597625e-14
-8.3194605e-13
-1.7069066e-14
-8.1337628e-13
-1.8569771e-14
-7.932795e-13
-2.0096779e-14
-7.716325e-13
-2.1646994e-14
-7.484153e-13
-2.3217204e-14
-7.2361118e-13
-2.480412e-14
-6.9720677e-13
-2.6404407e-14
-6.6919203e-13
-2.8014731e-14
-6.3956024e-13
-2.963179e-14
-6.0830786e-13
-3.1252379e-14
-5.7543442e-13
-3.2873431e-14
-5.4094232e-13
-3.4492088e-14
-5.0483655e-13
-3.6105766e-14
-4.671243e-13
-3.7712241e-14
-4.2781456e-13
-3.9309737e-14
-3.8691752e-13
-4.0897037e-14
-3.4444387e-13
-4.2473642e-14
-3.0040396e-13
-4.4039907e-14
-2.5480663e-13
-4.5597325e-14
-2.0765786e-13
-4.7148766e-14
-1.5895889e-13
-4.8698968e-14
-1.0870365e-13
-5.025524e-14
-5.6875307e-14
-5.1828341e-14
-3.4410063e-15
-5.3434299e-14
5.1656212e-14
-5.509722e-14
1.0850758e-13
-5.6851363e-14
1.6725632e-13
-5.8748746e-14
2.2812809e-13
-6.0871767e-14
2.9147935e-13
-6.3351262e-14
3.5787911e-13
-6.6399757e-14
4.2824738e-13
-7.0368265e-14
5.0409246e-13
-7.584507e-14
5.8790607e-13
-8.3813616e-14
6.8369215e-13
-9.5786081e-14
7.9759337e-13
-1.1390122e-13
9.4084038e-13
-1.4324702e-13
-1.9124782e-13
-6.4485864e-14
8.8799791e-14
-1.8329113e-13
1.7383914e-13
-3.0245704e-13
1.7935307e-13
-3.9105136e-13
1.3607765e-13
-4.3820145e-13
7.5092505e-14
-4.4598138e-13
1.6401723e-14
-4.2273698e-13
-3.0221246e-14
-3.7857625e-13
-6.1924042e-14
-3.2287628e-13
-7.9694163e-14
-2.6319075e-13
-8.6213387e-14
-2.0499629e-13
-8.4568959e-14
-1.5187107e-13
-7.7588503e-14
-1.0584787e-13
-6.7571036e-14
-6.779963e-14
-5.6236596e-14
-3.7790068e-14
-4.4779963e-14
-1.5361823e-14
-3.3966227e-14
2.4372063e-16
-2.4234382e-14
9.9259825e-15
-1.5787546e-14
1.4614974e-14
-8.6679054e-15
1.5199879e-14
-2.8145915e-15
1.2486477e-14
1.8936647e-15
7.1758491e-15
5.6078617e-15
-1.4253766e-16
8.4879837e-15
-8.9885022e-15
1.068973e-14
-1.8982794e-14
1.2356301e-14
-2.9835445e-14
1.3613885e-14
-4.1332821e-14
1.4569943e-14
-5.3324416e-14
1.5313045e-14
-6.5710246e-14
1.5913866e-14
-7.84294e-14
1.6426902e-14
-9.1449992e-14
1.6892529e-14
-1.0476064e-13
1.7339184e-14
-1.1836344e-13
1.7785534e-14
-1.322684e-13
1.82425e-14
-1.4648919e-13
1.8715105e-14
-1.6103996e-13
1.9204076e-14
-1.7593327e-13
1.9707213e-14
-1.9117869e-13
2.0220504e-14
-2.0678213e-13
2.0739008e-14
-2.2274562e-13
2.1257526e-14
-2.3906744e-13
2.1771078e-14
-2.557425e-13
2.2275223e-14
-2.7276284e-13
2.2766245e-14
-2.9011825e-13
2.3241238e-14
-3.0779679e-13
2.3698107e-14
-3.2578543e-13
2.413552e-14
-3.4407048e-13
2.4552823e-14
-3.6263805e-13
2.4949931e-14
-3.8147436e-13
2.532722e-14
-4.0056607e-13
2.5685411e-14
-4.1990041e-13
2.6025474e-14
-4.3946532e-13
2.6348534e-14
-4.5924956e-13
2.6655797e-14
-4.792427e-13
2.6948493e-14
-4.994351e-13
2.7227821e-14
-5.1981795e-13
2.7494927e-14
-5.4038313e-13
2.7750873e-14
-5.6112321e-13
2.7996628e-14
-5.8203136e-13
2.8233063e-14
-6.0310129e-13
2.8460951e-14
-6.2432719e-13
2.8680971e-14
-6.4570368e-13
2.8893715e-14
-6.6722572e-13
2.9099699e-14
-6.8888861e-13
2.929937e-14
-7.1068791e-13
2.9493118e-14
-7.3261945e-13
2.9681287e-14
-7.5467924e-13
2.9864178e-14
-7.7686352e-13
3.0042064e-14
-7.9916869e-13
3.0215196e-14
-8.2159133e-13
3.0383803e-14
-8.4412815e-13
3.0548107e-14
-8.6677604e-13
3.0708319e-14
-8.8953204e-13
3.086465e-14
-9.1239333e-13
3.1017305e-14
-9.3535723e-13
3.1166496e-14
-9.5842123e-13
3.1312433e-14
-9.8158296e-13
3.1455334e-14
-1.0048402e-12
3.159542e-14
-1.028191e-12
3.1732916e-14
-1.0516333e-12
3.1868052e-14
-1.0751655e-12
3.2001063e-14
-1.0987861e-12
3.2132186e-14
-1.1224935e-12
3.226166e-14
-1.1462868e-12
3.2389723e-14
-1.1701646e-12
3.2516613e-14
-1.1941263e-12
3.2642562e-14
-1.218171e-12
3.2767797e-14
-1.2422982e-12
3.2892533e-14
-1.2665073e-12
3.3016975e-14
-1.2907981e-12
3.314131e-14
-1.3151703e-12
3.3265704e-14
-1.3396238e-12
3.3390302e-14
-1.3641585e-12
3.3515216e-14
-1.3887744e-12
3.3640528e-14
-1.4134715e-12
3.3766277e-14
-1.4382496e-12
3.3892461e-14
-1.4631087e-12
3.4019024e-14
-1.4880486e-12
3.4145857e-14
-1.5130689e-12
3.4272784e-14
-1.5381691e-12
3.4399559e-14
-1.5633482e-12
3.452586e-14
-1.5886051e-12
3.4651277e-14
-1.6139382e-12
3.4775307e-14
-1.6393455e-12
3.4897347e-14
-1.6648245e-12
3.5016683e-14
-1.6903717e-12
3.513248e-14
-1.7159834e-12
3.5243778e-14
-1.7416546e-12
3.534948e-14
-1.7673797e-12
3.5448345e-14
-1.7931517e-12
3.5538976e-14
-1.8189628e-12
3.5619815e-14
-1.8448036e-12
3.5689131e-14
-1.8706634e-12
3.5745016e-14
-1.89653e-12
3.5785373e-14
-1.9223894e-12
3.5807912e-14
-1.9482257e-12
3.581014e-14
-1.9740211e-12
3.5789359e-14
-1.9997557e-12
3.5742657e-14
-2.0254072e-12
3.5666908e-14
-2.0509508e-12
3.5558765e-14
-2.0763592e-12
3.5414662e-14
-2.1016023e-12
3.5230811e-14
-2.126647e-12
3.5003206e-14
-2.1514572e-12
3.4727624e-14
-2.1759936e-12
3.4399633e-14
-2.2002134e-12
3.4014599e-14
-2.2240705e-12
3.3567692e-14
-2.247515e-12
3.3053904e-14
-2.2704934e-12
3.2468058e-14
-2.2929484e-12
3.1804828e-14
-2.3148187e-12
3.1058758e-14
-2.3360391e-12
3.0224285e-14
-2.3565402e-12
2.9295757e-14
-2.3762487e-12
2.8267469e-14
-2.3950874e-12
2.7133687e-14
-2.4129747e-12
2.588868e-14
-2.4298254e-12
2.4526769e-14
-2.4455499e-12
2.304236e-14
-2.4600554e-12
2.1429993e-14
-2.4732449e-12
1.968438e-14
-2.4850182e-12
1.7800447e-14
-2.4952717e-12
1.5773386e-14
-2.5038989e-12
1.3598699e-14
-2.5107904e-12
1.1272246e-14
-2.5158343e-12
8.790304e-15
-2.5189167e-12
6.1496201e-15
-2.5199218e-12
3.3474301e-15
-2.5187327e-12
3.8154445e-16
-2.5152314e-12
-2.7496457e-15
-2.5092996e-12
-6.0470462e-15
-2.500819e-12
-9.5109304e-15
-2.489672e-12
-1.3140839e-14
-2.4757421e-12
-1.6935575e-14
-2.4589143e-12
-2.0893164e-14
-2.4390762e-12
-2.5010839e-14
-2.4161178e-12
-2.9285023e-14
-2.3899328e-12
-3.3711321e-14
-2.3604187e-12
-3.8284529e-14
-2.3274776e-12
-4.2998636e-14
-2.2910167e-12
-4.7846851e-14
-2.2509486e-12
-5.2821621e-14
-2.2071922e-12
-5.7914679e-14
-2.1596727e-12
-6.3117081e-14
-2.1083225e-12
-6.8419273e-14
-2.0530811e-12
-7.381115e-14
-1.9938957e-12
-7.9282139e-14
-1.9307214e-12
-8.482129e-14
-1.8635213e-12
-9.0417369e-14
-1.7922664e-12
-9.6058978e-14
-1.7169361e-12
-1.0173468e-13
-1.6375177e-12
-1.0743312e-13
-1.5540063e-12
-1.131432e-13
-1.4664045e-12
-1.1885425e-13
-1.3747217e-12
-1.2455617e-13
-1.2789741e-12
-1.3023971e-13
-1.1791832e-12
-1.3589664e-13
-1.0753753e-12
-1.4152009e-13
-9.6758023e-13
-1.4710482e-13
-8.5582965e-13
-1.5264761e-13
-7.4015546e-13
-1.5814782e-13
-6.205875e-13
-1.6360786e-13
-4.9715069e-13
-1.6903413e-13
-3.698615e-13
-1.7443795e-13
-2.3872352e-13
-1.7983695e-13
-1.0372008e-13
-1.8525868e-13
3.5193706e-14
-1.9074213e-13
1.7809916e-13
-1.9633976e-13
3.2513146e-13
-2.0212952e-13
4.7650571e-13
-2.0822561e-13
6.325492e-13
-2.1479223e-13
7.9375028e-13
-2.2207285e-13
9.6083159e-13
-2.3043256e-13
1.1348557e-12
-2.4042386e-13
1.3173731e-12
-2.5288565e-13
1.5106136e-12
-2.6908563e-13
1.7176864e-12
-2.9088642e-13
1.9426735e-12
-3.2077312e-13
2.1903651e-12
-3.6159285e-13
2.4635435e-12
-4.164254e-13
-4.8236311e-13
-9.1472851e-14
1.8027264e-13
-2.4038681e-13
3.227531e-13
-3.7284867e-13
3.1181493e-13
-4.5698047e-13
2.2020945e-13
-4.8709941e-13
1.0521144e-13
-4.7109071e-13
3.9302564e-16
-4.2188056e-13
-7.94314e-14
-3.5263363e-13
-1.3117097e-13
-2.7452267e-13
-1.5780512e-13
-1.9601557e-13
-1.6472049e-13
-1.2293755e-13
-1.5764697e-13
-5.8872488e-14
-1.4165357e-13
-5.6555344e-15
-1.2078799e-13
3.6153235e-14
-9.8045366e-14
6.6866316e-14
-7.5493044e-14
8.7346899e-14
-5.444681e-14
9.8762272e-14
-3.5649756e-14
1.0240653e-13
-1.9431808e-14
9.9577491e-14
-5.8388631e-15
9.1496167e-14
5.2667323e-15
7.9259509e-14
1.4130322e-14
6.3816562e-14
2.1050808e-14
4.5961217e-14
2.6343328e-14
2.63365e-14
3.0314447e-14
5.4462129e-15
3.3246587e-14
-1.6329317e-14
3.5389415e-14
-3.8715342e-14
3.6955967e-14
-6.1524487e-14
3.812219e-14
-8.4639483e-14
3.9028861e-14
-1.0799722e-13
3.9784643e-14
-1.3157466e-13
4.0469963e-14
-1.5537677e-13
4.1141289e-14
-1.794266e-13
4.183537e-14
-2.0375736e-13
4.2573252e-14
-2.2840621e-13
4.3363959e-14
-2.5340986e-13
4.4207721e-14
-2.7880139e-13
4.5098742e-14
-3.0460835e-13
4.6027469e-14
-3.3085175e-13
4.6982408e-14
-3.5754573e-13
4.7951507e-14
-3.8469781e-13
4.8923154e-14
-4.1230944e-13
4.9886852e-14
-4.4037682e-13
5.0833627e-14
-4.688918e-13
5.1756212e-14
-4.9784277e-13
5.2649077e-14
-5.2721559e-13
5.3508339e-14
-5.5699436e-13
5.4331594e-14
-5.8716214e-13
5.5117711e-14
-6.1770152e-13
5.5866596e-14
-6.4859508e-13
5.6578974e-14
-6.7982578e-13
5.725617e-14
-7.1137717e-13
5.7899921e-14
-7.4323359e-13
5.8512217e-14
-7.7538026e-13
5.9095166e-14
-8.0780334e-13
5.9650895e-14
-8.4048988e-13
6.0181467e-14
-8.7342784e-13
6.0688834e-14
-9.0660602e-13
6.1174802e-14
-9.4001396e-13
6.1641007e-14
-9.7364193e-13
6.208892e-14
-1.0074808e-12
6.2519839e-14
-1.041522e-12
6.2934911e-14
-1.0757574e-12
6.3335138e-14
-1.1101795e-12
6.3721394e-14
-1.1447808e-12
6.4094449e-14
-1.1795545e-12
6.4454979e-14
-1.2144939e-12
6.4803587e-14
-1.2495927e-12
6.5140818e-14
-1.2848446e-12
6.546717e-14
-1.3202439e-12
6.5783109e-14
-1.3557849e-12
6.6089077e-14
-1.3914621e-12
6.6385501e-14
-1.4272702e-12
6.66728e-14
-1.4632043e-12
6.6951392e-14
-1.4992595e-12
6.7221696e-14
-1.5354312e-12
6.7484135e-14
-1.571715e-12
6.7739139e-14
-1.6081068e-12
6.7987143e-14
-1.6446024e-12
6.8228593e-14
-1.6811983e-12
6.8463937e-14
-1.7178909e-12
6.8693629e-14
-1.7546768e-12
6.8918126e-14
-1.7915531e-12
6.9137882e-14
-1.8285167e-12
6.9353345e-14
-1.865565e-12
6.9564957e-14
-1.9026956e-12
6.9773141e-14
-1.9399061e-12
6.9978302e-14
-1.9771944e-12
7.0180817e-14
-2.0145585e-12
7.0381031e-14
-2.0519964e-12
7.0579243e-14
-2.0895064e-12
7.0775707e-14
-2.1270867e-12
7.0970613e-14
-2.1647356e-12
7.1164085e-14
-2.2024512e-12
7.1356164e-14
-2.2402318e-12
7.1546803e-14
-2.2780751e-12
7.1735851e-14
-2.3159792e-12
7.1923039e-14
-2.3539413e-12
7.2107974e-14
-2.3919586e-12
7.2290116e-14
-2.4300278e-12
7.2468768e-14
-2.468145e-12
7.2643061e-14
-2.5063057e-12
7.2811938e-14
-2.5445045e-12
7.2974137e-14
-2.5827354e-12
7.3128173e-14
-2.620991e-12
7.3272326e-14
-2.6592632e-12
7.3404616e-14
-2.6975422e-12
7.3522794e-14
-2.735817e-12
7.3624319e-14
-2.774075e-12
7.3706341e-14
-2.8123017e-12
7.3765689e-14
-2.8504808e-12
7.3798848e-14
-2.8885936e-12
7.3801948e-14
-2.9266193e-12
7.3770746e-14
-2.9645346e-12
7.3700613e-14
-3.0023132e-12
7.3586522e-14
-3.0399261e-12
7.3423038e-14
-3.077341e-12
7.3204305e-14
-3.1145224e-12
7.2924041e-14
-3.1514311e-12
7.2575534e-14
-3.1880239e-12
7.2151639e-14
-3.2242541e-12
7.1644779e-14
-3.2600702e-12
7.1046947e-14
-3.2954167e-12
7.0349717e-14
-3.3302334e-12
6.9544255e-14
-3.3644551e-12
6.8621332e-14
-3.3980118e-12
6.7571348e-14
-3.4308285e-12
6.6384355e-14
-3.4628247e-12
6.5050086e-14
-3.4939146e-12
6.3557993e-14
-3.5240071e-12
6.1897284e-14
-3.5530053e-12
6.005697e-14
-3.5808069e-12
5.8025912e-14
-3.607304e-12
5.5792878e-14
-3.6323831e-12
5.3346601e-14
-3.6559253e-12
5.0675841e-14
-3.6778061e-12
4.7769463e-14
-3.6978958e-12
4.4616514e-14
-3.7160598e-12
4.120632e-14
-3.7321584e-12
3.7528567e-14
-3.7460474e-12
3.357339e-14
-3.7575784e-12
2.9331453e-14
-3.7665991e-12
2.4794049e-14
-3.7729536e-12
1.9953197e-14
-3.7764831e-12
1.4801733e-14
-3.7770262e-12
9.3333987e-15
-3.7744196e-12
3.5430432e-15
-3.7684986e-12
-2.5735728e-15
-3.7590978e-12
-9.0192824e-15
-3.7460517e-12
-1.5795747e-14
-3.7291954e-12
-2.2903287e-14
-3.7083655e-12
-3.034084e-14
-3.6834005e-12
-3.8105877e-14
-3.6541417e-12
-4.6194356e-14
-3.6204342e-12
-5.4600687e-14
-3.5821273e-12
-6.3317702e-14
-3.5390757e-12
-7.2336649e-14
-3.4911398e-12
-8.1647196e-14
-3.4381869e-12
-9.1237448e-14
-3.3800916e-12
-1.0109399e-13
-3.3167365e-12
-1.1120192e-13
-3.2480132e-12
-1.2154496e-13
-3.1738223e-12
-1.3210549e-13
-3.0940747e-12
-1.4286471e-13
-3.0086912e-12
-1.5380273e-13
-2.9176037e-12
-1.6489872e-13
-2.8207547e-12
-1.7613107e-13
-2.7180984e-12
-1.8747761e-13
-2.6096e-12
-1.9891577e-13
-2.4952362e-12
-2.1042282e-13
-2.3749947e-12
-2.2197614e-13
-2.2488744e-12
-2.3355345e-13
-2.1168844e-12
-2.4513316e-13
-1.979044e-12
-2.5669465e-13
-1.8353815e-12
-2.6821868e-13
-1.6859334e-12
-2.7968776e-13
-1.5307434e-12
-2.9108663e-13
-1.3698607e-12
-3.0240281e-13
-1.2033382e-12
-3.1362721e-13
-1.031231e-12
-3.2475484e-13
-8.5359295e-13
-3.3578586e-13
-6.7047423e-13
-3.4672657e-13
-4.8191725e-13
-3.5759111e-13
-2.8795201e-13
-3.6840318e-13
-8.8588162e-14
-3.792008e-13
1.1618904e-13
-3.9003588e-13
3.2642693e-13
-4.0098001e-13
5.4222582e-13
-4.1213865e-13
7.6375433e-13
-4.2365802e-13
9.9127033e-13
-4.3574161e-13
1.2251544e-12
-4.4867626e-13
1.4659507e-12
-4.6286919e-13
1.7144194e-12
-4.7890127e-13
1.9715962e-12
-4.9760063e-13
2.2388468e-12
-5.2013631e-13
2.5178793e-12
-5.4811813e-13
2.8106346e-12
-5.8364166e-13
3.1189128e-12
-6.2905128e-13
3.4433353e-12
-6.8601539e-13
3.780435e-12
-7.5352517e-13
-8.2301594e-13
-1.0897467e-13
2.8924731e-13
-2.5590164e-13
4.6968006e-13
-3.5612565e-13
4.1203894e-13
-3.8984643e-13
2.5393023e-13
-3.6587177e-13
8.1236783e-14
-3.0189004e-13
-6.3588697e-14
-2.1547255e-13
-1.6584889e-13
-1.2075827e-13
-2.2588526e-13
-2.7877349e-14
-2.5068604e-13
5.6555322e-14
-2.4915316e-13
1.2867942e-13
-2.2977107e-13
1.8666457e-13
-1.9963872e-13
2.3010383e-13
-1.6422725e-13
2.5954367e-13
-1.2748521e-13
2.7612884e-13
-9.2078215e-14
2.8133972e-13
-5.9657687e-14
2.7680136e-13
-3.1111399e-14
2.6414864e-13
-6.7790922e-15
2.4493277e-13
1.3377007e-14
2.2056432e-13
2.9635181e-14
1.9228044e-13
4.2414206e-14
1.6113084e-13
5.2200404e-14
1.2797781e-13
5.9496357e-14
9.3506108e-14
6.4786153e-14
5.8239137e-14
6.8513557e-14
2.2558807e-14
7.1069744e-14
-1.3273202e-14
7.2787976e-14
-4.9094088e-14
7.3943075e-14
-8.4819387e-14
7.475416e-14
-1.2042445e-13
7.5389703e-14
-1.5592807e-13
7.5973581e-14
-1.913784e-13
7.6591625e-14
-2.2684139e-13
7.7298354e-14
-2.6239147e-13
7.8123328e-14
-2.9810449e-13
7.9076986e-14
-3.3405257e-13
8.01558e-14
-3.7030053e-13
8.1346697e-14
-4.0690377e-13
8.2630711e-14
-4.4390727e-13
8.3985907e-14
-4.8134537e-13
8.538961e-14
-5.1924225e-13
8.6820035e-14
-5.5761279e-13
8.8257385e-14
-5.9646367e-13
8.9684511e-14
-6.3579469e-13
9.108723e-14
-6.7559998e-13
9.2454368e-14
-7.1586927e-13
9.3777621e-14
-7.5658895e-13
9.5051283e-14
-7.9774314e-13
9.62719e-14
-8.3931444e-13
9.7437892e-14
-8.8128465e-13
9.8549179e-14
-9.236353e-13
9.960682e-14
-9.6634808e-13
1.006127e-13
-1.0094051e-12
1.0156923e-13
-1.0527891e-12
1.0247918e-13
-1.0964836e-12
1.033454e-13
-1.1404729e-12
1.0417079e-13
-1.1847422e-12
1.0495812e-13
-1.2292774e-12
1.0570999e-13
-1.2740652e-12
1.064288e-13
-1.319093e-12
1.0711672e-13
-1.3643489e-12
1.0777571e-13
-1.4098214e-12
1.0840746e-13
-1.4554998e-12
1.0901351e-13
-1.5013736e-12
1.0959519e-13
-1.5474328e-12
1.1015367e-13
-1.5936678e-12
1.1069e-13
-1.6400693e-12
1.1120511e-13
-1.6866284e-12
1.1169985e-13
-1.7333362e-12
1.1217499e-13
-1.7801844e-12
1.1263128e-13
-1.8271647e-12
1.1306939e-13
-1.8742692e-12
1.1349e-13
-1.9214902e-12
1.1389378e-13
-1.9688201e-12
1.1428137e-13
-2.0162519e-12
1.1465343e-13
-2.0637784e-12
1.1501062e-13
-2.1113928e-12
1.1535361e-13
-2.1590888e-12
1.1568308e-13
-2.2068599e-12
1.1599971e-13
-2.2547001e-12
1.1630418e-13
-2.3026037e-12
1.1659718e-13
-2.350565e-12
1.168794e-13
-2.3985786e-12
1.1715151e-13
-2.4466394e-12
1.1741417e-13
-2.4947425e-12
1.17668e-13
-2.5428829e-12
1.179136e-13
-2.5910561e-12
1.1815153e-13
-2.6392576e-12
1.1838228e-13
-2.6874829e-12
1.1860628e-13
-2.7357275e-12
1.1882387e-13
-2.7839871e-12
1.1903532e-13
-2.8322572e-12
1.1924074e-13
-2.8805333e-12
1.1944016e-13
-2.9288106e-12
1.1963344e-13
-2.9770841e-12
1.1982027e-13
-3.0253484e-12
1.2000016e-13
-3.0735978e-12
1.2017243e-13
-3.1218259e-12
1.2033614e-13
-3.170026e-12
1.2049013e-13
-3.2181901e-12
1.2063293e-13
-3.2663099e-12
1.2076281e-13
-3.3143756e-12
1.2087768e-13
-3.3623766e-12
1.209751e-13
-3.4103007e-12
1.2105228e-13
-3.4581344e-12
1.21106e-13
-3.5058624e-12
1.2113261e-13
-3.5534676e-12
1.21128e-13
-3.6009308e-12
1.2108758e-13
-3.6482308e-12
1.2100625e-13
-3.6953434e-12
1.2087835e-13
-3.7422422e-12
1.2069767e-13
-3.7888977e-12
1.2045744e-13
-3.8352772e-12
1.2015023e-13
-3.8813446e-12
1.1976804e-13
-3.9270603e-12
1.1930217e-13
-3.9723806e-12
1.1874332e-13
-4.0172578e-12
1.1808149e-13
-4.0616398e-12
1.1730601e-13
-4.1054698e-12
1.1640554e-13
-4.1486862e-12
1.1536807e-13
-4.1912224e-12
1.1418092e-13
-4.2330062e-12
1.1283076e-13
-4.2739601e-12
1.1130363e-13
-4.3140008e-12
1.0958496e-13
-4.3530391e-12
1.0765962e-13
-4.3909797e-12
1.0551193e-13
-4.4277211e-12
1.0312575e-13
-4.4631555e-12
1.0048449e-13
-4.4971687e-12
9.7571209e-14
-4.5296401e-12
9.4368686e-14
-4.5604426e-12
9.085948e-14
-4.5894427e-12
8.7026031e-14
-4.6165006e-12
8.2850755e-14
-4.6414701e-12
7.8316143e-14
-4.6641992e-12
7.3404867e-14
-4.6845296e-12
6.8099899e-14
-4.7022977e-12
6.2384652e-14
-4.7173346e-12
5.6243132e-14
-4.7294661e-12
4.9660074e-14
-4.7385138e-12
4.2621072e-14
-4.744295e-12
3.5112723e-14
-4.7466238e-12
2.7122772e-14
-4.7453108e-12
1.8640262e-14
-4.7401648e-12
9.6557209e-15
-4.7309926e-12
1.611492e-16
-4.7176e-12
-9.8495132e-15
-4.6997932e-12
-2.0380452e-14
-4.6773784e-12
-3.1434072e-14
-4.6501635e-12
-4.3010626e-14
-4.6179586e-12
-5.5108192e-14
-4.5805768e-12
-6.7722575e-14
-4.5378355e-12
-8.0847231e-14
-4.4895566e-12
-9.4473209e-14
-4.4355682e-12
-1.0858912e-13
-4.3757048e-12
-1.2318112e-13
-4.3098085e-12
-1.3823291e-13
-4.2377299e-12
-1.537258e-13
-4.1593287e-12
-1.6963869e-13
-4.0744744e-12
-1.8594826e-13
-3.9830474e-12
-2.0262896e-13
-3.8849391e-12
-2.1965322e-13
-3.780053e-12
-2.3699158e-13
-3.6683048e-12
-2.546129e-13
-3.549623e-12
-2.7248453e-13
-3.4239492e-12
-2.9057257e-13
-3.2912381e-12
-3.0884217e-13
-3.1514579e-12
-3.272578e-13
-3.0045901e-12
-3.4578357e-13
-2.8506293e-12
-3.6438359e-13
-2.6895831e-12
-3.8302239e-13
-2.5214712e-12
-4.0166531e-13
-2.3463254e-12
-4.2027899e-13
-2.1641882e-12
-4.3883182e-13
-1.9751122e-12
-4.5729461e-13
-1.7791589e-12
-4.756411e-13
-1.5763968e-12
-4.938487e-13
-1.3669003e-12
-5.1189936e-13
-1.150747e-12
-5.2978046e-13
-9.2801602e-13
-5.4748583e-13
-6.9878442e-13
-5.6501745e-13
-4.6312453e-13
-5.8238646e-13
-2.2109836e-13
-5.9961727e-13
2.7247282e-14
-6.1674882e-13
2.8188147e-13
-6.3383498e-13
5.4280167e-13
-6.5095608e-13
8.1004638e-13
-6.6822472e-13
1.0837009e-12
-6.8579313e-13
1.363912e-12
-7.0386912e-13
1.6509058e-12
-7.2273542e-13
1.9450069e-12
-7.4277737e-13
2.2466587e-12
-7.6452097e-13
2.5564401e-12
-7.8868273e-13
2.8750696e-12
-8.1623012e-13
3.2033752e-12
-8.4844192e-13
3.5421943e-12
-8.8693722e-13
3.8921453e-12
-9.3359264e-13
4.2531984e-12
-9.9010434e-13
4.6238994e-12
-1.0567164e-12
5.000088e-12
-1.1297138e-12
-1.1998787e-12
-1.172061e-13
4.0645342e-13
-2.1860857e-13
5.7108253e-13
-2.2749683e-13
4.2092721e-13
-1.5782192e-13
1.8425531e-13
-4.2867708e-14
-3.3717425e-14
8.8638533e-14
-1.9509494e-13
2.1728092e-13
-2.9449128e-13
3.3189115e-13
-3.4049549e-13
4.2707637e-13
-3.4587126e-13
5.0102485e-13
-3.2310164e-13
5.5399429e-13
-2.8274052e-13
5.8737493e-13
-2.3301936e-13
6.0313474e-13
-1.7998705e-13
6.0349382e-13
-1.2784429e-13
5.9073031e-13
-7.9314706e-14
5.6706213e-13
-3.5989505e-14
5.3457106e-13
1.3796686e-15
4.9515386e-13
3.2638109e-14
4.504958e-13
5.8035064e-14
4.0205632e-13
7.8074653e-14
3.5106538e-13
9.3405153e-14
2.9852944e-13
1.0473634e-13
2.4524517e-13
1.1278062e-13
1.9181822e-13
1.1821311e-13
1.3868523e-13
1.2164655e-13
8.6137672e-14
1.236173e-13
3.4346033e-14
1.2457961e-13
-1.6616852e-14
1.2490596e-13
-6.6753968e-14
1.2489127e-13
-1.1612421e-13
1.2475994e-13
-1.648251e-13
1.2467448e-13
-2.1297826e-13
1.2474478e-13
-2.6071725e-13
1.2503734e-13
-3.0817815e-13
1.2558423e-13
-3.5549236e-13
1.263912e-13
-4.0278151e-13
1.2744494e-13
-4.5015408e-13
1.2871927e-13
-4.9770362e-13
1.3018025e-13
-5.4550799e-13
1.3179028e-13
-5.9362966e-13
1.3351128e-13
-6.4211654e-13
1.3530691e-13
-6.910033e-13
1.3714414e-13
-7.4031296e-13
1.3899417e-13
-7.9005855e-13
1.4083282e-13
-8.4024479e-13
1.4264061e-13
-8.9086968e-13
1.4440252e-13
-9.4192599e-13
1.4610759e-13
-9.9340248e-13
1.4774839e-13
-1.0452851e-12
1.4932047e-13
-1.0975577e-12
1.508218e-13
-1.1502031e-12
1.5225221e-13
-1.2032033e-12
1.5361297e-13
-1.2565404e-12
1.5490629e-13
-1.3101963e-12
1.5613504e-13
-1.3641533e-12
1.5730245e-13
-1.4183944e-12
1.5841189e-13
-1.472903e-12
1.5946668e-13
-1.527663e-12
1.6047003e-13
-1.5826592e-12
1.6142494e-13
-1.6378766e-12
1.6233415e-13
-1.693301e-12
1.6320014e-13
-1.7489187e-12
1.6402513e-13
-1.8047163e-12
1.648111e-13
-1.8606809e-12
1.6555979e-13
-1.9168e-12
1.6627274e-13
-1.9730613e-12
1.6695135e-13
-2.0294531e-12
1.6759685e-13
-2.0859636e-12
1.6821039e-13
-2.1425816e-12
1.68793e-13
-2.199296e-12
1.6934567e-13
-2.256096e-12
1.6986935e-13
-2.3129709e-12
1.7036494e-13
-2.3699105e-12
1.7083333e-13
-2.4269045e-12
1.7127543e-13
-2.4839432e-12
1.7169211e-13
-2.5410169e-12
1.7208426e-13
-2.5981161e-12
1.724528e-13
-2.6552316e-12
1.7279861e-13
-2.7123545e-12
1.7312261e-13
-2.769476e-12
1.734257e-13
-2.8265876e-12
1.7370877e-13
-2.8836809e-12
1.7397271e-13
-2.9407477e-12
1.7421836e-13
-2.9977801e-12
1.7444655e-13
-3.0547702e-12
1.7465804e-13
-3.1117101e-12
1.7485352e-13
-3.1685922e-12
1.7503362e-13
-3.2254088e-12
1.7519887e-13
-3.2821522e-12
1.7534966e-13
-3.3388146e-12
1.7548627e-13
-3.395388e-12
1.756088e-13
-3.4518645e-12
1.7571719e-13
-3.5082355e-12
1.7581116e-13
-3.5644922e-12
1.7589018e-13
-3.6206255e-12
1.759535e-13
-3.6766253e-12
1.7600003e-13
-3.7324813e-12
1.7602841e-13
-3.7881821e-12
1.7603688e-13
-3.8437153e-12
1.7602332e-13
-3.8990675e-12
1.7598518e-13
-3.9542242e-12
1.7591946e-13
-4.0091692e-12
1.7582267e-13
-4.0638849e-12
1.7569077e-13
-4.1183518e-12
1.7551918e-13
-4.1725485e-12
1.753027e-13
-4.2264514e-12
1.7503551e-13
-4.2800344e-12
1.7471108e-13
-4.3332691e-12
1.7432221e-13
-4.3861237e-12
1.7386091e-13
-4.4385638e-12
1.7331844e-13
-4.4905514e-12
1.7268524e-13
-4.5420449e-12
1.7195091e-13
-4.5929988e-12
1.7110419e-13
-4.6433637e-12
1.7013293e-13
-4.6930856e-12
1.6902408e-13
-4.742106e-12
1.6776366e-13
-4.7903613e-12
1.663368e-13
-4.8377829e-12
1.6472766e-13
-4.8842969e-12
1.6291951e-13
-4.9298236e-12
1.6089471e-13
-4.9742774e-12
1.5863473e-13
-5.0175668e-12
1.5612017e-13
-5.059594e-12
1.5333084e-13
-5.1002548e-12
1.5024575e-13
-5.1394384e-12
1.4684321e-13
-5.1770274e-12
1.4310089e-13
-5.2128975e-12
1.3899587e-13
-5.2469178e-12
1.3450478e-13
-5.2789505e-12
1.2960388e-13
-5.3088509e-12
1.2426915e-13
-5.3364679e-12
1.1847646e-13
-5.3616435e-12
1.1220166e-13
-5.3842136e-12
1.0542077e-13
-5.4040075e-12
9.811007e-14
-5.4208489e-12
9.0246325e-14
-5.4345559e-12
8.1806892e-14
-5.4449412e-12
7.2769943e-14
-5.4518128e-12
6.3114695e-14
-5.4549743e-12
5.2821595e-14
-5.4542258e-12
4.1872501e-14
-5.4493639e-12
3.0250877e-14
-5.4401831e-12
1.7941997e-14
-5.426476e-12
4.9331263e-15
-5.4080341e-12
-8.7862093e-15
-5.3846491e-12
-2.322383e-14
-5.3561132e-12
-3.8385385e-14
-5.32222e-12
-5.4273701e-14
-5.2827653e-12
-7.0888804e-14
-5.2375482e-12
-8.8227699e-14
-5.1863721e-12
-1.0628426e-13
-5.1290455e-12
-1.2504916e-13
-5.065383e-12
-1.4450977e-13
-4.9952061e-12
-1.6465015e-13
-4.9183442e-12
-1.8545097e-13
-4.8346357e-12
-2.0688962e-13
-4.7439285e-12
-2.2894014e-13
-4.6460809e-12
-2.5157336e-13
-4.5409626e-12
-2.74757e-13
-4.4284551e-12
-2.9845579e-13
-4.3084524e-12
-3.2263166e-13
-4.1808616e-12
-3.4724394e-13
-4.0456036e-12
-3.722496e-13
-3.902613e-12
-3.9760353e-13
-3.7518386e-12
-4.2325887e-13
-3.5932439e-12
-4.4916733e-13
-3.4268064e-12
-4.7527961e-13
-3.2525185e-12
-5.0154576e-13
-3.0703863e-12
-5.2791573e-13
-2.8804302e-12
-5.5433974e-13
-2.6826836e-12
-5.8076893e-13
-2.477193e-12
-6.0715589e-13
-2.2640167e-12
-6.3345528e-13
-2.0432241e-12
-6.5962446e-13
-1.8148943e-12
-6.856244e-13
-1.579115e-12
-7.1142038e-13
-1.3359808e-12
-7.3698284e-13
-1.0855915e-12
-7.6228872e-13
-8.280495e-13
-7.8732242e-13
-5.6345822e-13
-8.1207709e-13
-2.9191788e-13
-8.3655778e-13
-1.3522027e-14
-8.607823e-13
2.7164233e-13
-8.8478163e-13
5.6350122e-13
-9.086077e-13
8.6200331e-13
-9.3233708e-13
1.1671221e-12
-9.5607487e-13
1.478862e-12
-9.7996459e-13
1.7972671e-12
-1.0041983e-12
2.1224291e-12
-1.0290311e-12
2.4544948e-12
-1.0548011e-12
2.7936716e-12
-1.0819542e-12
3.1402273e-12
-1.1110767e-12
3.4944787e-12
-1.1429342e-12
3.8567583e-12
-1.1785096e-12
4.2273443e-12
-1.219028e-12
4.6063346e-12
-1.2659275e-12
4.9934448e-12
-1.3207029e-12
5.3877419e-12
-1.3844015e-12
5.787358e-12
-1.4563325e-12
6.1891834e-12
-1.5315392e-12
-1.6018922e-12
-1.0076079e-13
5.0721421e-13
-7.9317228e-14
5.4963897e-13
8.7851362e-14
2.5375861e-13
3.1912223e-13
-4.7015564e-14
5.5219614e-13
-2.6679134e-13
7.5467036e-13