/*--------------------------------*- C++ -*----------------------------------*\
| =========                 |                                                 |
| \\      /  F ield         | OpenFOAM: The Open Source CFD Toolbox           |
|  \\    /   O peration     | Version:  2406                                  |
|   \\  /    A nd           | Website:  www.openfoam.com                      |
|    \\/     M anipulation  |                                                 |
\*---------------------------------------------------------------------------*/
FoamFile
{
    version     2.0;
    format      ascii;
    arch        "LSB;label=32;scalar=64";
    class       volScalarField;
    location    "2500";
    object      T;
}
// * * * * * * * * * * * * * * * * * * * * * * * * * * * * * * * * * * * * * //

dimensions      [0 0 0 0 0 0 0];

internalField   nonuniform List<scalar> 
11400
(
0.99181432
0.99170935
0.99166108
0.99162544
0.99159338
0.99156191
0.99152953
0.99124651
0.99049136
0.9892398
0.98738824
0.98474665
0.98100898
0.97569765
0.96807435
0.95701254
0.94086124
0.91746483
0.88521966
0.84455618
0.80187595
0.76890981
0.74944841
0.73554202
0.73258459
0.73195826
0.73183542
0.73178417
0.73173937
0.73169642
0.73165514
0.73161552
0.73157748
0.73154094
0.73150582
0.73147203
0.7314395
0.73140813
0.73137787
0.73134865
0.7313204
0.73129307
0.73126661
0.73124096
0.73121607
0.73119191
0.73116842
0.73114558
0.73112334
0.73110168
0.73108056
0.73105995
0.73103983
0.73102017
0.73100094
0.73098214
0.73096373
0.73094569
0.73092802
0.73091069
0.73089369
0.73087701
0.73086063
0.73084454
0.73082872
0.73081317
0.73079788
0.73078284
0.73076803
0.73075345
0.73073909
0.73072494
0.73071101
0.73069726
0.73068372
0.73067035
0.73065717
0.73064416
0.73063132
0.73061865
0.73060613
0.73059377
0.73058156
0.73056949
0.73055757
0.73054578
0.73053413
0.73052261
0.73051121
0.73049994
0.73048879
0.73047776
0.73046685
0.73045605
0.73044535
0.73043477
0.73042429
0.73041391
0.73040363
0.73039346
0.73038338
0.73037339
0.73036349
0.73035369
0.73034397
0.73033434
0.7303248
0.73031534
0.73030596
0.73029667
0.73028745
0.73027831
0.73026925
0.73026026
0.73025134
0.73024249
0.73023372
0.73022501
0.73021637
0.7302078
0.73019929
0.73019085
0.73018246
0.73017414
0.73016587
0.73015767
0.73014951
0.73014141
0.73013336
0.73012537
0.73011742
0.73010951
0.73010165
0.73009384
0.73008606
0.73007832
0.73007062
0.73006295
0.73005531
0.7300477
0.73004012
0.73003256
0.73002502
0.73001749
0.73000998
0.73000248
0.72999499
0.7299875
0.72998001
0.72997251
0.72996411
0.72994858
0.72992553
0.7298946
0.72985544
0.72980767
0.72975095
0.72968492
0.72960922
0.72952352
0.72942747
0.72932074
0.72920302
0.72907399
0.72893334
0.72878079
0.72861603
0.72843879
0.72824879
0.72804576
0.72782942
0.7275995
0.72735571
0.72709775
0.72682529
0.72653797
0.72623536
0.72591699
0.72558226
0.72523043
0.72486054
0.72447131
0.72406136
0.72362727
0.72317345
0.72268277
0.72212623
0.72137397
0.72094491
0.72051666
0.72007817
0.71962483
0.719152
0.71865324
0.71811865
0.71753274
0.71687208
0.71610383
0.7151743
0.71401738
0.99459605
0.99564949
0.99684426
0.99788798
0.99866169
0.99912708
0.99928955
0.99929392
0.99928261
0.99925447
0.99920454
0.99912512
0.99900331
0.99881738
0.99852992
0.99807584
0.99732231
0.99504177
0.99183499
0.98578649
0.97569175
0.95698132
0.9053063
0.76371929
0.7400847
0.73373305
0.73289166
0.73292418
0.73299572
0.73306358
0.73312788
0.73318948
0.733249
0.73330692
0.7333636
0.73341932
0.73347429
0.73352866
0.73358254
0.73363599
0.73368907
0.73374178
0.73379414
0.73384613
0.73389774
0.73394896
0.73399976
0.73405013
0.73410005
0.7341495
0.73419849
0.734247
0.73429503
0.73434257
0.73438963
0.73443621
0.73448233
0.73452797
0.73457316
0.73461789
0.73466219
0.73470606
0.73474951
0.73479255
0.73483519
0.73487745
0.73491932
0.73496083
0.73500197
0.73504276
0.73508321
0.73512333
0.73516312
0.7352026
0.73524177
0.73528063
0.73531921
0.73535749
0.7353955
0.73543324
0.73547071
0.73550793
0.73554489
0.73558162
0.73561811
0.73565437
0.73569041
0.73572624
0.73576185
0.73579727
0.7358325
0.73586754
0.7359024
0.73593709
0.73597161
0.73600598
0.73604019
0.73607425
0.73610818
0.73614197
0.73617563
0.73620917
0.73624258
0.73627589
0.73630908
0.73634216
0.73637514
0.73640801
0.73644077
0.73647343
0.73650599
0.73653843
0.73657076
0.73660297
0.73663505
0.736667
0.7366988
0.73673044
0.7367619
0.73679318
0.73682425
0.73685509
0.73688567
0.73691597
0.73694596
0.73697561
0.73700487
0.73703372
0.7370621
0.73708998
0.73711729
0.73714399
0.73717002
0.73719532
0.73721981
0.73724344
0.73726612
0.73728777
0.73730831
0.73732765
0.7373457
0.73736234
0.73737749
0.73739102
0.73740282
0.73741276
0.73742073
0.73742657
0.73743016
0.73742023
0.73739479
0.73735541
0.73730145
0.73723226
0.73714722
0.73704568
0.73692701
0.73679059
0.73663581
0.73646206
0.73626876
0.73605533
0.7358212
0.73556584
0.7352887
0.73498928
0.73466708
0.73432159
0.73395235
0.73355886
0.73314064
0.73269721
0.73222804
0.73173258
0.7312102
0.73066019
0.73008174
0.72947382
0.72883514
0.72816441
0.72745955
0.72671555
0.72593572
0.72508046
0.72421574
0.72328374
0.72217758
0.72136795
0.72056149
0.71973856
0.71889222
0.71801698
0.7171063
0.71615115
0.7151385
0.71404955
0.71285837
0.71153235
0.71003468
0.70834796
0.99591641
0.99718958
0.99830727
0.99901464
0.99935283
0.99946116
0.9994738
0.99948474
0.99949978
0.99951543
0.99952746
0.9995364
0.99954273
0.99954683
0.99954611
0.99954143
0.99953041
0.9994998
0.99943639
0.99930266
0.99857078
0.99532588
0.98343566
0.93937935
0.87322321
0.76084469
0.73498037
0.73399215
0.73422794
0.73446197
0.73467615
0.73487572
0.73506428
0.73524436
0.73541779
0.73558597
0.73574994
0.73591051
0.7360683
0.73622376
0.73637723
0.73652896
0.73667913
0.73682785
0.73697521
0.73712126
0.73726603
0.73740956
0.73755185
0.73769293
0.73783279
0.73797145
0.73810894
0.73824525
0.73838042
0.73851446
0.7386474
0.73877926
0.73891007
0.73903986
0.73916864
0.73929645
0.73942332
0.73954927
0.73967433
0.73979853
0.73992188
0.74004441
0.74016615
0.74028711
0.74040733
0.74052681
0.74064558
0.74076366
0.74088106
0.74099781
0.74111392
0.74122942
0.7413443
0.74145861
0.74157234
0.74168552
0.74179817
0.7419103
0.74202192
0.74213306
0.74224373
0.74235394
0.74246372
0.74257308
0.74268204
0.74279061
0.7428988
0.74300665
0.74311415
0.74322133
0.7433282
0.74343477
0.74354107
0.74364709
0.74375286
0.74385837
0.74396365
0.7440687
0.74417352
0.74427812
0.74438249
0.74448663
0.74459054
0.74469421
0.74479762
0.74490076
0.74500361
0.74510614
0.74520831
0.74531009
0.74541144
0.7455123
0.74561261
0.74571231
0.74581133
0.74590958
0.74600696
0.74610338
0.74619873
0.74629287
0.74638568
0.746477
0.74656668
0.74665455
0.74674042
0.74682408
0.74690534
0.74698395
0.74705967
0.74713226
0.74720142
0.74726687
0.74732831
0.7473854
0.74743781
0.74748519
0.74752714
0.7475633
0.74759323
0.74761652
0.74763273
0.7476333
0.74760567
0.74755582
0.7474838
0.74738862
0.74726925
0.74712471
0.74695397
0.74675605
0.74652996
0.7462747
0.74598932
0.74567285
0.74532437
0.74494294
0.74452768
0.74407771
0.74359218
0.74307026
0.74251114
0.74191403
0.74127816
0.74060274
0.739887
0.73913014
0.73833132
0.73748967
0.73660412
0.73567337
0.73469622
0.73367081
0.73259266
0.73146131
0.73028058
0.72900907
0.72774992
0.72623
0.72474058
0.72328768
0.72197894
0.72065789
0.71930633
0.71791769
0.71648691
0.7150081
0.71347336
0.71187176
0.71018812
0.70840197
0.70648731
0.70441547
0.70216379
0.69973569
0.99666925
0.99790539
0.99881096
0.99925424
0.99939091
0.99940245
0.99941861
0.99944594
0.99947403
0.99950273
0.9995225
0.99953656
0.9995468
0.99955393
0.99955855
0.99956121
0.99956239
0.99956248
0.99956204
0.99955544
0.99949105
0.99905615
0.99675452
0.98542847
0.95524102
0.88095773
0.78168703
0.73565326
0.73525477
0.73571555
0.73613172
0.73651065
0.73686276
0.73719479
0.73751142
0.73781602
0.73811111
0.73839859
0.73867989
0.73895613
0.73922814
0.73949654
0.73976182
0.7400243
0.74028426
0.74054189
0.74079731
0.74105064
0.74130194
0.74155129
0.74179873
0.74204431
0.74228807
0.74253005
0.74277029
0.74300883
0.74324571
0.74348099
0.74371469
0.74394687
0.74417756
0.74440681
0.74463467
0.74486116
0.74508633
0.74531021
0.74553285
0.74575428
0.74597453
0.74619363
0.74641162
0.74662852
0.74684437
0.74705918
0.74727299
0.74748582
0.7476977
0.74790866
0.7481187
0.74832787
0.74853619
0.74874367
0.74895034
0.74915623
0.74936135
0.74956574
0.74976942
0.7499724
0.75017472
0.75037639
0.75057744
0.75077789
0.75097777
0.7511771
0.7513759
0.75157419
0.75177199
0.75196931
0.75216618
0.75236261
0.75255861
0.7527542
0.75294937
0.75314413
0.75333848
0.75353242
0.75372593
0.75391899
0.75411159
0.7543037
0.75449527
0.75468627
0.75487662
0.75506628
0.75525517
0.75544318
0.75563023
0.7558162
0.75600096
0.75618437
0.75636625
0.75654644
0.75672474
0.75690092
0.75707475
0.75724597
0.7574143
0.75757942
0.75774101
0.75789872
0.75805215
0.75820089
0.75834452
0.75848255
0.7586145
0.75873983
0.75885799
0.75896839
0.7590704
0.75916338
0.75924663
0.75931945
0.75938108
0.75943074
0.75946762
0.75949087
0.7594732
0.75941846
0.7593342
0.75921904
0.75907159
0.75889046
0.75867422
0.75842144
0.75813069
0.75780054
0.75742954
0.75701625
0.75655926
0.75605715
0.75550852
0.75491198
0.75426619
0.7535698
0.75282152
0.75202008
0.75116423
0.75025275
0.74928448
0.74825824
0.74717281
0.74602681
0.74481892
0.74354848
0.74221405
0.74081167
0.73934129
0.73780787
0.73618583
0.7344638
0.7327406
0.73070756
0.72894028
0.72657989
0.72474177
0.72286733
0.72094434
0.71896941
0.71693989
0.7148525
0.71270278
0.71048448
0.70818893
0.70580427
0.7033147
0.70069995
0.69793606
0.69499951
0.69187776
0.68858236
0.99712615
0.99824549
0.99897912
0.99928635
0.99934055
0.9993256
0.99938291
0.99943082
0.99947075
0.99950271
0.99952736
0.9995456
0.99955842
0.99956678
0.99957157
0.99957367
0.99957371
0.99957375
0.99957348
0.99957237
0.99956438
0.99949671
0.99902904
0.99613473
0.98519865
0.94949736
0.87232969
0.77409829
0.73638027
0.73676293
0.73744143
0.73804666
0.73859989
0.73911541
0.73960256
0.74006787
0.74051606
0.74095066
0.74137432
0.74178908
0.74219648
0.74259771
0.74299368
0.74338506
0.74377238
0.74415604
0.74453633
0.74491348
0.74528767
0.74565904
0.7460277
0.74639376
0.7467573
0.74711839
0.7474771
0.74783351
0.74818768
0.74853967
0.74888955
0.74923738
0.7495832
0.7499271
0.75026911
0.75060929
0.75094769
0.75128436
0.75161935
0.7519527
0.75228445
0.75261464
0.75294332
0.75327051
0.75359625
0.75392058
0.75424352
0.7545651
0.75488537
0.75520434
0.75552205
0.75583851
0.75615377
0.75646785
0.75678077
0.75709257
0.75740327
0.75771289
0.75802147
0.75832904
0.75863561
0.75894122
0.75924589
0.75954965
0.75985253
0.76015454
0.76045571
0.76075607
0.76105562
0.7613544
0.7616524
0.76194964
0.76224613
0.76254187
0.76283685
0.76313107
0.7634245
0.76371713
0.76400891
0.76429982
0.76458979
0.76487876
0.76516665
0.76545337
0.76573882
0.76602287
0.76630538
0.7665862
0.76686513
0.76714197
0.76741651
0.76768849
0.76795763
0.76822362
0.76848613
0.76874479
0.76899919
0.76924892
0.76949348
0.76973238
0.76996506
0.77019094
0.77040939
0.77061973
0.77082126
0.7710132
0.77119476
0.77136508
0.77152325
0.77166833
0.77179933
0.77191519
0.77201482
0.77209708
0.77216078
0.77220468
0.77220685
0.77215283
0.77206297
0.77193594
0.77177002
0.77156341
0.77131428
0.77102077
0.77068097
0.77029294
0.76985471
0.76936429
0.76881964
0.76821874
0.76755952
0.76683993
0.76605791
0.76521141
0.76429839
0.76331684
0.76226478
0.76114029
0.75994144
0.75866627
0.75731299
0.75588038
0.75436722
0.75277074
0.75108494
0.74931282
0.74746059
0.74550624
0.74343705
0.74133243
0.73910612
0.73659645
0.73435924
0.73136042
0.72894313
0.72647825
0.72394704
0.72134636
0.71867475
0.71593066
0.71311188
0.71021517
0.70723592
0.70416767
0.70100158
0.6977259
0.69432546
0.69078163
0.68707353
0.68318245
0.67910276
0.67484911
0.99736772
0.99833414
0.99897772
0.99917839
0.99924171
0.99932484
0.99940002
0.99946129
0.99950897
0.99954487
0.99957092
0.99958886
0.99960012
0.99960607
0.99960771
0.99960775
0.99960774
0.99960655
0.99960433
0.99960121
0.99959648
0.99958041
0.99947266
0.9986951
0.99493009
0.97956428
0.93440674
0.84640442
0.75712753
0.73766533
0.73856671
0.73945074
0.74024552
0.74097732
0.74166273
0.74231285
0.74293556
0.74353662
0.74412034
0.74469
0.7452481
0.74579658
0.7463369
0.74687022
0.74739742
0.74791916
0.74843598
0.74894827
0.74945637
0.74996052
0.75046093
0.75095777
0.75145119
0.75194131
0.75242825
0.75291212
0.75339299
0.75387098
0.75434616
0.7548186
0.7552884
0.75575562
0.75622033
0.75668259
0.75714246
0.75760001
0.75805529
0.75850834
0.75895922
0.75940797
0.75985463
0.76029924
0.76074184
0.76118247
0.76162116
0.76205793
0.76249283
0.76292588
0.76335711
0.76378654
0.76421422
0.76464016
0.76506439
0.76548694
0.76590783
0.76632709
0.76674476
0.76716084
0.76757538
0.76798838
0.76839988
0.7688099
0.76921846
0.76962558
0.77003127
0.77043555
0.77083842
0.7712399
0.77163999
0.77203868
0.77243596
0.77283182
0.77322623
0.77361915
0.77401055
0.77440036
0.77478853
0.77517496
0.77555956
0.77594221
0.77632279
0.77670114
0.77707709
0.77745043
0.77782096
0.77818841
0.77855252
0.77891296
0.77926941
0.77962148
0.77996876
0.7803108
0.7806471
0.78097714
0.78130032
0.78161603
0.78192358
0.78222226
0.78251127
0.7827898
0.78305694
0.78331176
0.78355325
0.78378036
0.78399194
0.78418683
0.78436377
0.78452144
0.78465849
0.78477345
0.78486484
0.78493109
0.78495666
0.78491662
0.78482681
0.78469606
0.78452238
0.78430365
0.78403769
0.78372222
0.78335489
0.78293323
0.78245471
0.78191671
0.78131655
0.78065145
0.77991859
0.77911507
0.77823795
0.77728427
0.77625103
0.77513523
0.77393379
0.77264359
0.77126161
0.76978526
0.76821198
0.76653818
0.76475817
0.76287115
0.76088206
0.75879715
0.75657545
0.75421715
0.75179994
0.7492586
0.74643572
0.74367549
0.7408492
0.73737833
0.73440902
0.73136044
0.72822126
0.72498998
0.72166646
0.7182506
0.71474199
0.71113964
0.70744178
0.70364556
0.69974677
0.69573945
0.69161549
0.68736422
0.6829722
0.67842339
0.6737005
0.66878913
0.66368825
0.65841324
0.99740264
0.99833445
0.9988457
0.99913201
0.99931675
0.99944005
0.99952483
0.99958408
0.99962552
0.99965388
0.9996722
0.99968258
0.9996864
0.99968643
0.99968646
0.99968496
0.99968111
0.99967524
0.99966771
0.99965886
0.99964887
0.99963597
0.99959999
0.99936934
0.99805768
0.99166405
0.96807741
0.90660814
0.80964594
0.74361629
0.73948999
0.74069516
0.74177444
0.74275616
0.74366746
0.7445259
0.74534356
0.74612916
0.74688916
0.74762841
0.74835066
0.74905876
0.74975492
0.75044087
0.75111794
0.75178717
0.75244937
0.75310517
0.75375509
0.75439952
0.7550388
0.75567318
0.7563029
0.75692814
0.75754907
0.75816585
0.7587786
0.75938744
0.75999249
0.76059385
0.7611916
0.76178585
0.76237666
0.76296412
0.7635483
0.76412925
0.76470704
0.76528172
0.76585334
0.76642195
0.76698759
0.7675503
0.76811012
0.76866707
0.76922119
0.76977252
0.77032107
0.77086687
0.77140996
0.77195034
0.77248805
0.7730231
0.77355553
0.77408534
0.77461256
0.77513721
0.77565931
0.77617887
0.77669592
0.77721046
0.77772252
0.7782321
0.77873921
0.77924385
0.77974604
0.78024577
0.78074303
0.7812378
0.78173008
0.78221983
0.78270702
0.7831916
0.78367352
0.78415271
0.78462909
0.78510256
0.78557301
0.7860403
0.78650429
0.7869648
0.78742164
0.78787459
0.7883234
0.78876778
0.78920744
0.78964202
0.79007116
0.79049443
0.79091137
0.7913215
0.79172425
0.79211906
0.79250526
0.79288219
0.79324908
0.79360514
0.79394951
0.79428128
0.79459946
0.79490301
0.79519083
0.79546174
0.7957145
0.79594778
0.79616022
0.79635034
0.79651661
0.79665742
0.79677109
0.79685585
0.79690081
0.79687557
0.79678999
0.79666295
0.79649228
0.79627566
0.79601062
0.79569454
0.79532465
0.79489799
0.79441148
0.79386185
0.79324567
0.79255938
0.79179924
0.7909614
0.79004188
0.78903657
0.78794124
0.78675159
0.78546338
0.78407265
0.78257525
0.78096619
0.77923862
0.77738966
0.7754203
0.77333302
0.7711006
0.76870711
0.76616243
0.7635829
0.76081035
0.75773518
0.75467449
0.75157628
0.74788105
0.74434743
0.74085131
0.73724852
0.73352782
0.72968796
0.72572963
0.7216539
0.71746184
0.7131543
0.70873177
0.70419413
0.69954053
0.6947691
0.6898767
0.68485864
0.67970834
0.67441714
0.66897414
0.66336658
0.65758103
0.65160695
0.64544656
0.63911468
0.99741006
0.99897283
0.99940049
0.99958012
0.99967709
0.99973598
0.99977386
0.99979864
0.9998144
0.99982338
0.99982677
0.99982676
0.99982676
0.99982516
0.9998196
0.99981053
0.99979844
0.99978387
0.9997673
0.99974921
0.99973001
0.9997096
0.9996827
0.99959572
0.99911212
0.99644045
0.98467325
0.94643279
0.86487063
0.77152672
0.74025062
0.74175629
0.74316514
0.74443075
0.74559501
0.74668416
0.7477158
0.74870239
0.74965304
0.75057459
0.75147226
0.75235005
0.75321106
0.75405772
0.7548919
0.7557151
0.75652847
0.75733293
0.75812922
0.75891792
0.75969951
0.76047437
0.76124282
0.76200514
0.76276156
0.76351228
0.76425748
0.7649973
0.76573189
0.76646138
0.76718588
0.76790548
0.76862028
0.76933037
0.77003582
0.77073669
0.77143305
0.77212495
0.77281244
0.77349557
0.77417436
0.77484886
0.7755191
0.7761851
0.77684689
0.77750448
0.7781579
0.77880717
0.7794523
0.7800933
0.7807302
0.78136299
0.78199169
0.78261631
0.78323686
0.78385334
0.78446576
0.78507413
0.78567845
0.78627872
0.78687493
0.78746708
0.78805517
0.78863918
0.78921908
0.78979487
0.7903665
0.79093395
0.79149715
0.79205607
0.79261063
0.79316075
0.79370635
0.79424732
0.79478353
0.79531485
0.79584111
0.79636214
0.79687773
0.79738766
0.79789166
0.79838947
0.79888075
0.79936517
0.79984235
0.80031187
0.80077327
0.80122606
0.80166969
0.80210358
0.8025271
0.80293955
0.80334022
0.80372831
0.80410297
0.80446331
0.80480837
0.80513711
0.80544846
0.80574125
0.80601427
0.80626623
0.80649575
0.80670139
0.80688164
0.8070349
0.80715947
0.80725359
0.80730778
0.80729314
0.80721516
0.8070988
0.80694185
0.80674189
0.80649627
0.80620212
0.80585632
0.8054555
0.80499605
0.80447405
0.80388535
0.80322553
0.80248986
0.80167338
0.80077088
0.79977694
0.79868612
0.79749276
0.79619081
0.79477336
0.79323301
0.79156533
0.78976878
0.7878429
0.7857621
0.78351202
0.78109436
0.77858714
0.77591459
0.77300519
0.76973412
0.76662166
0.76333643
0.75944728
0.75563069
0.7518273
0.74788194
0.74378363
0.73953177
0.73512767
0.7305733
0.72587099
0.7210232
0.71603246
0.71090121
0.70563171
0.70022585
0.694685
0.68900986
0.68320021
0.6772547
0.67117064
0.66494378
0.65856814
0.65203606
0.6453385
0.63846609
0.63141195
0.62418085
0.61678613
0.99978141
0.99988467
0.99991974
0.99993773
0.99994831
0.99995486
0.99995888
0.9999611
0.99996183
0.99996181
0.99996179
0.99996045
0.99995553
0.99994739
0.99993628
0.99992238
0.99990587
0.9998869
0.9998657
0.99984248
0.99981753
0.99979103
0.99976163
0.99971173
0.99951098
0.99836027
0.99255604
0.97006671
0.90975656
0.81357596
0.74783505
0.74262814
0.74439959
0.7459828
0.74742597
0.74876669
0.7500295
0.7512315
0.75238501
0.75349925
0.75458117
0.75563614
0.7566683
0.75768089
0.75867645
0.75965698
0.76062405
0.76157892
0.76252258
0.76345584
0.76437934
0.76529362
0.7661991
0.76709617
0.76798511
0.76886619
0.76973964
0.77060565
0.7714644
0.77231602
0.77316065
0.7739984
0.77482938
0.77565368
0.77647136
0.77728251
0.77808717
0.77888541
0.77967725
0.78046274
0.78124191
0.78201478
0.78278138
0.78354172
0.78429581
0.78504366
0.78578529
0.78652069
0.78724987
0.78797282
0.78868956
0.78940007
0.79010435
0.7908024
0.79149421
0.79217977
0.79285907
0.7935321
0.79419885
0.7948593
0.79551342
0.7961612
0.79680261
0.79743761
0.79806616
0.79868822
0.79930373
0.79991264
0.80051488
0.80111035
0.80169898
0.80228064
0.80285523
0.80342261
0.80398262
0.8045351
0.80507985
0.80561666
0.8061453
0.80666551
0.807177
0.80767947
0.80817256
0.80865591
0.80912912
0.80959173
0.81004329
0.81048327
0.81091113
0.81132627
0.81172806
0.81211583
0.81248884
0.81284634
0.8131875
0.81351144
0.81381726
0.81410397
0.81437053
0.81461584
0.81483875
0.81503802
0.81521235
0.81536035
0.81548056
0.81557142
0.81562233
0.81561213
0.81554549
0.815447
0.81531453
0.81514567
0.81493772
0.81468767
0.81439217
0.81404751
0.81364962
0.81319404
0.81267593
0.81209002
0.81143067
0.81069189
0.80986727
0.80894991
0.8079322
0.8068058
0.80556343
0.80419881
0.80270679
0.80107861
0.79929196
0.79733337
0.79520164
0.79296191
0.79054262
0.7878914
0.78490043
0.78190698
0.77877128
0.77541071
0.77129413
0.76753558
0.76358902
0.75944829
0.75511322
0.75058467
0.74586417
0.74095394
0.73585675
0.73057587
0.72511501
0.71947821
0.71366974
0.70769399
0.70155536
0.6952581
0.68880619
0.68220316
0.67545192
0.66855459
0.66151229
0.65432501
0.64699144
0.63950889
0.63187338
0.62407986
0.61612315
0.60799996
0.59971733
0.59128714
0.99999998
0.99999997
0.99999997
0.99999997
0.99999996
0.99999996
0.99999995
0.99999995
0.99999994
0.99999945
0.99999796
0.99999551
0.99999192
0.99998689
0.99998004
0.999971
0.99995941
0.99994502
0.99992765
0.99990724
0.99988382
0.99985751
0.99982799
0.999789
0.99968689
0.99915045
0.99618961
0.98300299
0.94073103
0.85492706
0.76723202
0.74328292
0.74541011
0.74732518
0.74905576
0.75065297
0.75214944
0.75356748
0.75492302
0.75622785
0.75749087
0.75871888
0.75991717
0.76108987
0.76224022
0.76337076
0.76448354
0.76558015
0.76666189
0.7677298
0.76878471
0.76982731
0.77085816
0.77187773
0.7728864
0.7738845
0.77487231
0.77585007
0.77681797
0.77777619
0.77872488
0.77966416
0.78059416
0.78151495
0.78242663
0.78332925
0.78422288
0.78510756
0.78598333
0.78685021
0.78770823
0.78855741
0.78939775
0.79022927
0.79105197
0.79186584
0.79267089
0.7934671
0.79425448
0.795033
0.79580266
0.79656345
0.79731535
0.79805835
0.79879242
0.79951757
0.80023375
0.80094095
0.80163915
0.80232832
0.80300843
0.80367945
0.80434134
0.80499406
0.80563755
0.80627177
0.80689665
0.80751212
0.80811811
0.80871453
0.80930127
0.80987824
0.81044529
0.81100231
0.81154912
0.81208558
0.81261148
0.81312663
0.8136308
0.81412375
0.81460522
0.81507491
0.81553252
0.81597771
0.81641012
0.81682936
0.81723502
0.81762665
0.81800379
0.81836592
0.81871252
0.81904302
0.81935682
0.81965327
0.81993171
0.82019141
0.82043162
0.82065153
0.82085029
0.82102697
0.82118061
0.82131016
0.8214145
0.82149242
0.82153397
0.82152653
0.82147751
0.82140567
0.8213091
0.82118554
0.8210324
0.82084666
0.82062492
0.82036328
0.82005739
0.81970236
0.81929275
0.81882258
0.81828523
0.8176734
0.81697925
0.81619475
0.81531191
0.81432304
0.81321915
0.81198238
0.81059898
0.80905799
0.80736489
0.80554101
0.80352793
0.80128313
0.79870661
0.79609814
0.79331285
0.79030991
0.78665408
0.78308339
0.77936008
0.77541257
0.77123262
0.76681803
0.76216796
0.75728274
0.75216371
0.74681317
0.74123431
0.73543113
0.72940841
0.72317157
0.71672661
0.71007998
0.70323846
0.69620905
0.68899881
0.68161471
0.67406348
0.66635146
0.65848444
0.65046747
0.64230474
0.63399943
0.62555363
0.61696829
0.60824333
0.59937784
0.59037074
0.58122225
0.57194118
0.56254247
1
1
1
1
1
1
1
1
1
0.99999996
0.99999978
0.9999993
0.9999983
0.99999653
0.99999364
0.99998924
0.99998286
0.99997407
0.99996241
0.99994749
0.99992902
0.99990678
0.99988048
0.99984763
0.99978517
0.99951673
0.99797424
0.990286
0.96170596
0.89129882
0.79555066
0.74673599
0.74626026
0.74853212
0.75057052
0.75243946
0.75418126
0.75582432
0.75738872
0.75888919
0.76033678
0.76173996
0.76310528
0.76443785
0.76574168
0.76701997
0.76827523
0.76950948
0.77072433
0.77192108
0.77310079
0.77426431
0.77541233
0.77654545
0.77766415
0.77876881
0.77985977
0.78093733
0.7820017
0.78305311
0.78409171
0.78511764
0.78613104
0.78713198
0.78812057
0.78909685
0.79006089
0.79101273
0.79195239
0.7928799
0.79379528
0.79469852
0.79558962
0.7964686
0.79733543
0.7981901
0.7990326
0.79986292
0.80068102
0.8014869
0.80228053
0.80306188
0.80383094
0.80458766
0.80533204
0.80606403
0.8067836
0.80749074
0.80818539
0.80886753
0.80953712
0.81019411
0.81083847
0.81147014
0.81208906
0.81269519
0.81328845
0.81386878
0.81443611
0.81499034
0.81553139
0.81605917
0.81657357
0.81707447
0.81756175
0.81803529
0.81849494
0.81894055
0.81937199
0.81978907
0.82019163
0.8205795
0.82095249
0.82131043
0.82165311
0.82198034
0.82229194
0.82258771
0.82286745
0.82313096
0.82337807
0.82360856
0.82382227
0.82401898
0.82419852
0.82436067
0.82450522
0.82463193
0.82474055
0.82483076
0.82490219
0.82495442
0.8249802
0.82497547
0.8249481
0.8249083
0.82485447
0.82478465
0.82469648
0.82458716
0.82445339
0.82429133
0.82409656
0.82386402
0.823588
0.82326205
0.82287905
0.82243126
0.82191025
0.82130607
0.8206062
0.81979789
0.81886872
0.81781243
0.81664112
0.81531439
0.81380623
0.8120735
0.81010883
0.80805442
0.80579706
0.80331655
0.80022432
0.79717661
0.79392477
0.79042097
0.786655
0.78262091
0.77831416
0.77373154
0.76887115
0.76373243
0.75831612
0.75262423
0.74666003
0.74042798
0.73393365
0.72718365
0.72018551
0.71294757
0.70547884
0.69778891
0.68988774
0.68178553
0.6734926
0.66501916
0.65637522
0.64757035
0.63861361
0.62951333
0.62027703
0.61091131
0.60142176
0.591813
0.58208871
0.57225185
0.56230515
0.55225203
0.54210275
0.5318738
1
1
1
1
1
1
1
1
1
0.99999999
0.99999997
0.99999986
0.99999958
0.99999899
0.99999785
0.99999586
0.99999263
0.99998769
0.99998053
0.9999706
0.99995733
0.99994021
0.99991872
0.99989146
0.99984782
0.99970132
0.9988725
0.9943637
0.97538004
0.92047523
0.827116
0.75621722
0.74694925
0.74959536
0.75195987
0.75411353
0.75611003
0.75798479
0.75976257
0.76146139
0.76309472
0.76467283
0.76620366
0.76769341
0.76914695
0.77056816
0.7719601
0.77332522
0.77466549
0.77598251
0.77727756
0.77855168
0.77980574
0.78104043
0.78225633
0.78345393
0.78463362
0.78579574
0.78694056
0.78806832
0.7891792
0.79027336
0.79135093
0.79241202
0.79345671
0.79448506
0.79549713
0.79649294
0.79747253
0.79843591
0.79938308
0.80031404
0.80122879
0.8021273
0.80300957
0.80387558
0.80472529
0.8055587
0.80637577
0.80717648
0.80796081
0.80872872
0.8094802
0.81021522
0.81093376
0.81163579
0.8123213
0.81299027
0.81364267
0.81427849
0.81489772
0.81550033
0.81608633
0.81665569
0.8172084
0.81774446
0.81826387
0.8187666
0.81925267
0.81972208
0.82017482
0.82061091
0.82103036
0.82143319
0.82181942
0.82218909
0.82254224
0.82287893
0.82319922
0.82350319
0.82379095
0.8240626
0.82431827
0.82455814
0.82478236
0.82499115
0.82518474
0.82536337
0.82552734
0.82567694
0.82581252
0.82593441
0.826043
0.82613866
0.82622179
0.82629275
0.82635192
0.82639963
0.82643615
0.82646167
0.82647582
0.82647839
0.82647618
0.8264717
0.82646378
0.82645091
0.82643115
0.82640214
0.82636096
0.82630406
0.8262272
0.82612536
0.82599272
0.82582267
0.82560775
0.82533906
0.82500663
0.82460006
0.82411117
0.82353204
0.82284272
0.82202281
0.8210421
0.81986362
0.81859307
0.81714577
0.81550002
0.81356364
0.81124906
0.80887929
0.80626339
0.80338289
0.80022514
0.7967794
0.79303604
0.78898679
0.78462489
0.77994508
0.77494375
0.76961893
0.76397034
0.75799936
0.75170904
0.74510402
0.73819048
0.73097602
0.72346958
0.71568132
0.70762242
0.69930501
0.69074192
0.6819466
0.67293284
0.6637147
0.65430624
0.64472141
0.63497384
0.6250767
0.61504253
0.60488312
0.59460942
0.58423143
0.57375816
0.56319768
0.55255713
0.54184291
0.53106105
0.5202178
0.50932449
0.4983985
1
1
1
1
1
1
1
1
1
1
0.99999999
0.99999997
0.99999988
0.99999967
0.99999922
0.99999832
0.99999671
0.99999401
0.99998977
0.99998342
0.99997433
0.99996183
0.99994519
0.99992326
0.99989057
0.99980297
0.99934008
0.99665918
0.98412056
0.94259202
0.85787685
0.77241587
0.74772229
0.75050851
0.75321476
0.75566363
0.75792175
0.76003249
0.76202584
0.76392342
0.76574135
0.76749187
0.76918442
0.77082638
0.77242356
0.77398054
0.77550099
0.77698785
0.77844347
0.77986974
0.78126822
0.78264016
0.78398657
0.78530831
0.78660605
0.78788038
0.78913176
0.79036058
0.79156717
0.79275179
0.79391465
0.79505595
0.79617582
0.79727438
0.79835172
0.79940791
0.80044302
0.80145707
0.8024501
0.80342212
0.80437315
0.80530318
0.80621223
0.80710027
0.80796732
0.80881336
0.80963839
0.81044241
0.81122541
0.81198739
0.81272838
0.81344837
0.81414738
0.81482544
0.81548257
0.81611881
0.81673421
0.81732882
0.81790269
0.81845589
0.81898851
0.81950062
0.81999234
0.82046376
0.82091501
0.82134621
0.82175752
0.8221491
0.82252112
0.82287377
0.82320725
0.82352181
0.82381769
0.82409515
0.82435449
0.82459604
0.82482013
0.82502716
0.82521752
0.82539166
0.82555007
0.82569326
0.82582179
0.82593627
0.82603733
0.82612567
0.82620202
0.82626716
0.8263219
0.82636711
0.82640368
0.82643254
0.82645462
0.8264709
0.82648233
0.82648986
0.82649438
0.82650015
0.82651123
0.8265282
0.82655167
0.82658126
0.82661636
0.82665604
0.82669896
0.82674331
0.82678674
0.82682642
0.82685909
0.82688038
0.82688485
0.82686586
0.82681533
0.82672416
0.82658436
0.82638399
0.82610781
0.8257349
0.82525451
0.82467732
0.82397262
0.82312135
0.82208418
0.82071196
0.81927049
0.81761189
0.81571595
0.81356474
0.81114106
0.80842862
0.80541196
0.80207685
0.7984104
0.7944013
0.79003992
0.78531852
0.78023126
0.77477438
0.76894618
0.76274708
0.75617958
0.74924826
0.74195967
0.73432225
0.72634624
0.7180435
0.70942735
0.70051243
0.69131448
0.68185014
0.67213677
0.66219224
0.65203469
0.64168237
0.63115341
0.62046566
0.60963649
0.59868266
0.58762013
0.576464
0.56522836
0.5539263
0.54256981
0.53116986
0.51973642
0.50827863
0.49680504
0.48532402
0.47384741
0.46239318
1
1
1
1
1
1
1
1
1
1
1
0.99999999
0.99999996
0.99999988
0.99999969
0.99999928
0.99999846
0.99999698
0.99999448
0.99999048
0.99998438
0.99997549
0.99996298
0.99994577
0.99992056
0.99986364
0.99959343
0.99796816
0.98966481
0.95878471
0.88543857
0.79300014
0.75058828
0.75126801
0.75432712
0.75707907
0.75960322
0.76195184
0.76416064
0.76625519
0.76825443
0.77017274
0.77202115
0.77380831
0.775541
0.77722462
0.77886345
0.78046094
0.78201986
0.78354246
0.78503054
0.78648559
0.78790883
0.78930124
0.79066364
0.79199672
0.79330102
0.794577
0.79582506
0.7970455
0.79823859
0.79940455
0.80054355
0.80165574
0.80274124
0.80380016
0.80483258
0.80583856
0.80681817
0.80777146
0.80869848
0.80959927
0.81047388
0.81132237
0.81214477
0.81294115
0.81371156
0.81445609
0.81517481
0.8158678
0.81653519
0.81717707
0.81779358
0.81838486
0.81895106
0.81949237
0.82000896
0.82050105
0.82096886
0.82141264
0.82183264
0.82222915
0.82260248
0.82295294
0.82328089
0.8235867
0.82387077
0.82413351
0.82437539
0.82459687
0.82479848
0.82498074