/*--------------------------------*- C++ -*----------------------------------*\
| =========                 |                                                 |
| \\      /  F ield         | OpenFOAM: The Open Source CFD Toolbox           |
|  \\    /   O peration     | Version:  2406                                  |
|   \\  /    A nd           | Website:  www.openfoam.com                      |
|    \\/     M anipulation  |                                                 |
\*---------------------------------------------------------------------------*/
FoamFile
{
    version     2.0;
    format      ascii;
    arch        "LSB;label=32;scalar=64";
    class       surfaceScalarField;
    location    "111";
    object      phi;
}
// * * * * * * * * * * * * * * * * * * * * * * * * * * * * * * * * * * * * * //

dimensions      [0 3 -1 0 0 0 0];

oriented        oriented;

internalField   nonuniform List<scalar> 
7780
(
1.5711978e-12
5.1213558e-13
1.1143114e-12
4.5688636e-13
8.2218557e-13
2.9212584e-13
6.3812838e-13
1.8405719e-13
5.2193922e-13
1.1618915e-13
4.4814311e-13
7.3796116e-14
4.0059652e-13
4.7546588e-14
3.6949867e-13
3.1097853e-14
3.4893772e-13
2.0560945e-14
3.3527136e-13
1.3666364e-14
3.2619213e-13
9.0792333e-15
3.2019834e-13
5.9937854e-15
3.1629e-13
3.9083399e-15
3.1378979e-13
2.5002128e-15
3.1223422e-13
1.5555659e-15
3.1130493e-13
9.2929282e-16
3.1078361e-13
5.2131446e-16
3.1052163e-13
2.6198481e-16
3.1041891e-13
1.0271288e-16
3.1040922e-13
9.6941219e-18
3.1044963e-13
-4.0414833e-17
3.1051318e-13
-6.3548445e-17
3.105836e-13
-7.0414878e-17
3.1065166e-13
-6.8065447e-17
3.1071268e-13
-6.1022596e-17
3.1076477e-13
-5.2086123e-17
3.1080767e-13
-4.2904507e-17
3.1084205e-13
-3.4374736e-17
3.1086897e-13
-2.6918221e-17
3.1088963e-13
-2.0667584e-17
3.1090522e-13
-1.5590607e-17
3.1091679e-13
-1.1570052e-17
3.1092525e-13
-8.453491e-18
3.1093133e-13
-6.0827059e-18
3.1093564e-13
-4.3099417e-18
3.1093865e-13
-3.0055712e-18
3.1094071e-13
-2.0607235e-18
3.109421e-13
-1.3868306e-18
3.1094301e-13
-9.1373167e-19
3.109436e-13
-5.8702295e-19
3.1094396e-13
-3.6536464e-19
3.1094418e-13
-2.1787252e-19
3.109443e-13
-1.2188788e-19
3.1094436e-13
-6.1037638e-20
3.1094439e-13
-2.37078e-20
3.1094439e-13
-1.7815508e-21
3.1094438e-13
1.0293265e-20
3.1094436e-13
1.625719e-20
3.1094435e-13
1.8559307e-20
3.1094433e-13
1.8778844e-20
3.1094431e-13
1.7889373e-20
3.1094429e-13
1.6484031e-20
3.1094428e-13
1.4893502e-20
3.1094427e-13
1.3303653e-20
3.1094425e-13
1.179596e-20
3.1094424e-13
1.0410594e-20
3.1094423e-13
9.1486966e-21
3.1094423e-13
8.0102215e-21
3.1094422e-13
6.9789833e-21
3.1094421e-13
6.0502767e-21
3.1094421e-13
5.2088239e-21
3.109442e-13
4.4533657e-21
3.109442e-13
3.7717544e-21
3.109442e-13
3.1657378e-21
3.1094419e-13
2.6245043e-21
3.1094419e-13
2.1511048e-21
3.1094419e-13
1.7343838e-21
3.1094419e-13
1.3777641e-21
3.1094419e-13
1.0689964e-21
3.1094419e-13
8.1183564e-22
3.1094419e-13
5.9291179e-22
3.1094419e-13
4.167267e-22
3.1094419e-13
2.6906293e-22
3.1094419e-13
1.5566646e-22
3.1094419e-13
6.1784311e-23
3.1094419e-13
-5.2321807e-24
3.1094419e-13
-6.0469353e-23
3.1094418e-13
-9.481771e-23
3.1094418e-13
-1.2359043e-22
3.1094418e-13
-1.3597892e-22
3.1094418e-13
-1.4747799e-22
3.1094418e-13
-1.4579729e-22
3.1094418e-13
-1.4657769e-22
3.1094418e-13
-1.3635955e-22
3.1094418e-13
-1.3087321e-22
3.1094418e-13
-1.1586251e-22
3.1094418e-13
-1.0702211e-22
3.1094418e-13
-8.9695256e-23
3.1094418e-13
-7.9381628e-23
3.1094418e-13
-6.1394488e-23
3.1094418e-13
-5.0822433e-23
3.1094418e-13
-3.3313654e-23
3.1094418e-13
-2.3305783e-23
3.1094418e-13
-7.1002236e-24
3.1094418e-13
1.7607768e-24
3.1094418e-13
1.6054506e-23
3.1094418e-13
2.3344933e-23
3.1094418e-13
3.5275949e-23
3.1094419e-13
4.0701289e-23
3.1094419e-13
4.9976724e-23
3.1094419e-13
5.3361638e-23
3.1094419e-13
5.9841313e-23
3.1094419e-13
6.114053e-23
3.1094419e-13
6.4843691e-23
3.1094419e-13
6.4132473e-23
3.1094419e-13
6.5230842e-23
3.1094419e-13
6.2704453e-23
3.1094419e-13
6.1505151e-23
3.1094419e-13
5.7459764e-23
3.1094419e-13
5.4379314e-23
3.1094419e-13
4.918463e-23
3.1094419e-13
4.4707277e-23
3.1094419e-13
3.8771313e-23
3.1094419e-13
3.3408376e-23
3.1094419e-13
2.7134875e-23
3.1094419e-13
2.1367121e-23
3.1094419e-13
1.509944e-23
3.1094419e-13
9.3226699e-24
3.1094419e-13
3.2915417e-24
3.1094419e-13
-2.2358486e-24
3.1094419e-13
-7.9581078e-24
3.1094419e-13
-1.3144696e-23
3.1094419e-13
-1.8661086e-23
3.1094419e-13
-2.3580289e-23
3.1094419e-13
-2.9167342e-23
3.1094419e-13
-3.4039665e-23
3.1094419e-13
-4.011148e-23
3.1094419e-13
-4.5244697e-23
3.1094419e-13
-5.2279065e-23
3.1094419e-13
-5.7968094e-23
3.1094419e-13
-6.6389659e-23
3.1094419e-13
-7.2809625e-23
3.1094419e-13
-8.2893095e-23
3.1094419e-13
-8.9994489e-23
3.1094419e-13
-1.0175481e-22
3.1094419e-13
-1.0921602e-22
3.1094419e-13
-1.2237219e-22
3.1094419e-13
-1.2957311e-22
3.1094419e-13
-1.4351797e-22
3.1094419e-13
-1.4957543e-22
3.1094419e-13
-1.6344756e-22
3.1094419e-13
-1.673194e-22
3.1094419e-13
-1.800853e-22
3.1094419e-13
-1.8070428e-22
3.1094419e-13
-1.9131898e-22
3.1094418e-13
-1.8773915e-22
3.1094418e-13
-1.9524668e-22
3.1094418e-13
-1.8674397e-22
3.1094418e-13
-1.9038378e-22
3.1094418e-13
-1.7653667e-22
3.1094418e-13
-1.7577742e-22
3.1094418e-13
-1.5645713e-22
3.1094418e-13
-1.5098446e-22
3.1094418e-13
-1.2630022e-22
3.1094418e-13
-1.1592928e-22
3.1094418e-13
-8.609204e-23
3.1094418e-13
-7.0648316e-23
3.1094418e-13
-3.5831793e-23
3.1094418e-13
-1.5001839e-23
3.1094418e-13
2.4845088e-23
3.1094418e-13
5.164002e-23
3.1094418e-13
9.6904251e-23
3.1094418e-13
1.3061771e-22
3.1094418e-13
1.8211925e-22
3.1094418e-13
2.2403027e-22
3.1094418e-13
2.8288311e-22
3.1094418e-13
3.343426e-22
3.1094418e-13
4.0148653e-22
3.1094418e-13
4.6313319e-22
3.1094418e-13
5.381524e-22
3.1094418e-13
6.0825455e-22
3.1094418e-13
6.8714266e-22
3.1094418e-13
7.5869232e-22
3.1094418e-13
8.3015519e-22
3.1094418e-13
8.8643058e-22
3.1094418e-13
9.268016e-22
3.1094418e-13
9.3578678e-22
3.1094418e-13
9.0333224e-22
3.1094418e-13
8.1240461e-22
3.1094418e-13
6.432817e-22
3.1094418e-13
3.7742191e-22
3.1094418e-13
-1.2393762e-23
3.1094418e-13
-5.4346804e-22
3.1094418e-13
-1.2438673e-21
3.1094419e-13
-2.1223844e-21
3.1094419e-13
-3.1952632e-21
3.1094419e-13
-4.4501893e-21
3.109442e-13
-5.8737277e-21
3.1094421e-13
-7.4170637e-21
3.1094422e-13
-9.0223035e-21
3.1094423e-13
-1.0598727e-20
3.1094424e-13
-1.2056675e-20
3.1094425e-13
-1.3306257e-20
3.1094427e-13
-1.433529e-20
3.1094428e-13
-1.5289238e-20
3.109443e-13
-1.6600767e-20
3.1094432e-13
-1.89205e-20
3.1094434e-13
-2.4273446e-20
3.1094438e-13
-3.7304437e-20
-5.6912845e-20
2.1272333e-12
4.6823562e-13
1.9382741e-12
6.4584557e-13
1.6906265e-12
5.3977339e-13
1.4724438e-12
4.0223988e-13
1.3016354e-12
2.8699756e-13
1.1744821e-12
2.0094946e-13
1.0822453e-12
1.3978334e-13
1.01632e-12
9.7023184e-14
9.6967605e-13
6.7204906e-14
9.3696659e-13
4.6375822e-14
9.1424513e-13
3.1800698e-14
8.9863622e-13
2.1602693e-14
8.8805755e-13
1.4487005e-14
8.8100725e-13
9.550521e-15
8.7640673e-13
6.1560847e-15
8.7348585e-13
3.8501641e-15
8.7169888e-13
2.3082828e-15
8.7066283e-13
1.2980411e-15
8.7011212e-13
6.5342062e-16
8.6986529e-13
2.5652053e-16
8.6980053e-13
2.4346088e-17
8.6983783e-13
-1.0085504e-16
8.6992612e-13
-1.5869795e-16
8.7003393e-13
-1.758845e-16
8.7014294e-13
-1.7002862e-16
8.7024329e-13
-1.5243739e-16
8.703305e-13
-1.3011328e-16
8.704033e-13
-1.0717878e-16
8.7046226e-13
-8.5876083e-17
8.7050885e-13
-6.7257387e-17
8.7054491e-13
-5.1652751e-17
8.7057232e-13
-3.8980235e-17
8.7059281e-13
-2.8945817e-17
8.706079e-13
-2.1167843e-17
8.7061884e-13
-1.525064e-17
8.7062666e-13
-1.0824923e-17
8.7063217e-13
-7.5670031e-18
8.7063599e-13
-5.2051469e-18
8.7063859e-13
-3.5184922e-18
8.7064034e-13
-2.3321536e-18
8.7064148e-13
-1.5106521e-18
8.7064222e-13
-9.5107516e-19
8.7064267e-13
-5.7661831e-19
8.7064294e-13
-3.3093467e-19
8.7064309e-13
-1.733491e-19
8.7064317e-13
-7.4988124e-20
8.7064319e-13
-1.5686624e-20
8.7064319e-13
1.8385645e-20
8.7064318e-13
3.654862e-20
8.7064315e-13
4.4949832e-20
8.7064312e-13
4.7563954e-20
8.7064309e-13
4.6890379e-20
8.7064306e-13
4.4465034e-20
8.7064303e-13
4.1194142e-20
8.7064301e-13
3.7599639e-20
8.7064298e-13
3.3961478e-20
8.7064296e-13
3.0428441e-20
8.7064294e-13
2.7067449e-20
8.7064293e-13
2.3912173e-20
8.7064291e-13
2.0971267e-20
8.706429e-13
1.8251513e-20
8.7064289e-13
1.5750079e-20
8.7064288e-13
1.3469167e-20
8.7064287e-13
1.1403084e-20
8.7064286e-13
9.5514571e-21
8.7064286e-13
7.9048911e-21
8.7064285e-13
6.4591394e-21
8.7064285e-13
5.2001954e-21
8.7064285e-13
4.1200139e-21
8.7064284e-13
3.2007584e-21
8.7064284e-13
2.4321041e-21
8.7064284e-13
1.7941526e-21
8.7064284e-13
1.2763134e-21
8.7064284e-13
8.5850693e-22
8.7064284e-13
5.3159903e-22
8.7064284e-13
2.766987e-22
8.7064284e-13
8.7223759e-23
8.7064284e-13
-5.3759797e-23
8.7064284e-13
-1.498667e-22
8.7064284e-13
-2.158794e-22
8.7064284e-13
-2.5252533e-22
8.7064284e-13
-2.7256928e-22
8.7064283e-13
-2.742582e-22
8.7064283e-13
-2.686783e-22
8.7064283e-13
-2.5213088e-22
8.7064283e-13
-2.3437967e-22
8.7064283e-13
-2.1034296e-22
8.7064283e-13
-1.8878055e-22
8.7064283e-13
-1.6374185e-22
8.7064283e-13
-1.4319027e-22
8.7064283e-13
-1.2074067e-22
8.7064283e-13
-1.0369528e-22
8.7064283e-13
-8.5571136e-23
8.7064283e-13
-7.3060634e-23
8.7064283e-13
-5.9846832e-23
8.7064283e-13
-5.2023528e-23
8.7064283e-13
-4.3621606e-23
8.7064284e-13
-4.0113275e-23
8.7064284e-13
-3.6013552e-23
8.7064284e-13
-3.6159566e-23
8.7064284e-13
-3.5628464e-23
8.7064284e-13
-3.8614305e-23
8.7064284e-13
-4.0806865e-23
8.7064284e-13
-4.5773318e-23
8.7064284e-13
-4.9825172e-23
8.7064284e-13
-5.5928449e-23
8.7064284e-13
-6.1004609e-23
8.7064284e-13
-6.7481485e-23
8.7064284e-13
-7.2838169e-23
8.7064284e-13
-7.9033431e-23
8.7064284e-13
-8.4045326e-23
8.7064284e-13
-8.9450926e-23
8.7064284e-13
-9.364322e-23
8.7064284e-13
-9.7891043e-23
8.7064284e-13
-1.0092452e-22
8.7064284e-13
-1.0379889e-22
8.7064284e-13
-1.05482e-22
8.7064284e-13
-1.0689238e-22
8.7064285e-13
-1.071533e-22
8.7064285e-13
-1.071404e-22
8.7064285e-13
-1.0602339e-22
8.7064285e-13
-1.0471722e-22
8.7064285e-13
-1.0234492e-22
8.7064285e-13
-9.9954126e-23
8.7064285e-13
-9.6504246e-23
8.7064285e-13
-9.3282417e-23
8.7064285e-13
-8.8969847e-23
8.7064285e-13
-8.5213735e-23
8.7064285e-13
-8.0265272e-23
8.7064285e-13
-7.6262834e-23
8.7064285e-13
-7.0871055e-23
8.7064285e-13
-6.6888077e-23
8.7064285e-13
-6.1205138e-23
8.7064284e-13
-5.7430913e-23
8.7064284e-13
-5.1525883e-23
8.7064284e-13
-4.8094209e-23
8.7064284e-13
-4.1981047e-23
8.7064284e-13
-3.8925561e-23
8.7064284e-13
-3.2521631e-23
8.7064284e-13
-2.9804967e-23
8.7064284e-13
-2.2997811e-23
8.7064284e-13
-2.0496487e-23
8.7064284e-13
-1.3105599e-23
8.7064284e-13
-1.0655274e-23
8.7064283e-13
-2.5184765e-24
8.7064283e-13
1.1091257e-25
8.7064283e-13
9.2161498e-24
8.7064283e-13
1.2329195e-23
8.7064283e-13
2.2680303e-23
8.7064283e-13
2.6746595e-23
8.7064283e-13
3.882757e-23
8.7064283e-13
4.4598841e-23
8.7064283e-13
5.9237168e-23
8.7064282e-13
6.7980286e-23
8.7064282e-13
8.6636005e-23
8.7064282e-13
1.003887e-22
8.7064282e-13
1.2543844e-22
8.7064282e-13
1.4734417e-22
8.7064282e-13
1.8242895e-22
8.7064282e-13
2.170256e-22
8.7064282e-13
2.6727093e-22
8.7064282e-13
3.2060856e-22
8.7064282e-13
3.9262216e-22
8.7064282e-13
4.7197253e-22
8.7064282e-13
5.7312834e-22
8.7064282e-13
6.8579558e-22
8.7064282e-13
8.2243751e-22
8.7064282e-13
9.7305359e-22
8.7064282e-13
1.1466687e-21
8.7064282e-13
1.3320443e-21
8.7064282e-13
1.5324964e-21
8.7064282e-13
1.7329915e-21
8.7064282e-13
1.927814e-21
8.7064282e-13
2.0944507e-21
8.7064282e-13
2.2138772e-21
8.7064282e-13
2.251641e-21
8.7064282e-13
2.1708856e-21
8.7064282e-13
1.9211672e-21
8.7064282e-13
1.4448785e-21
8.7064282e-13
6.7443523e-22
8.7064282e-13
-4.6638721e-22
8.7064283e-13
-2.056427e-21
8.7064283e-13
-4.1783646e-21
8.7064284e-13
-6.9039496e-21
8.7064285e-13
-1.0294621e-20
8.7064286e-13
-1.4379771e-20
8.7064288e-13
-1.9154409e-20
8.706429e-13
-2.4555661e-20
8.7064292e-13
-3.0460012e-20
8.7064295e-13
-3.6669621e-20
8.7064298e-13
-4.2924458e-20
8.7064302e-13
-4.8922482e-20
8.7064306e-13
-5.4390514e-20
8.706431e-13
-5.9193774e-20
8.7064315e-13
-6.3537985e-20
8.706432e-13
-6.8225922e-20
8.7064326e-13
-7.5190568e-20
8.7064332e-13
-8.7602263e-20
8.7064339e-13
-1.1055259e-19
-1.4711859e-19
2.1825173e-12
3.6905162e-13
2.1933513e-12
6.3501163e-13
2.1007526e-12
6.323721e-13
1.9679563e-12
5.3503611e-13
1.8348392e-12
4.2011468e-13
1.7188539e-12
3.1693477e-13
1.6250206e-12
2.3361665e-13
1.5524328e-12
1.6961097e-13
1.4979316e-12
1.2170614e-13
1.4579051e-12
8.6402281e-14
1.4290407e-12
6.0665091e-14
1.4085695e-12
4.2073928e-14
1.3942891e-12
2.8767356e-14
1.3845012e-12
1.9338507e-14
1.3779236e-12
1.2733665e-14
1.3736053e-12
8.16848e-15
1.3708511e-12
5.06249e-15
1.3691601e-12
2.9889628e-15
1.3681769e-12
1.636653e-15
1.3676527e-12
7.8066521e-16
1.3674168e-12
2.602603e-16
1.367354e-12
-3.8014389e-17
1.3673884e-12
-1.9309053e-16
1.3674715e-12
-2.5897494e-16
1.3675733e-12
-2.719018e-16
1.3676765e-12
-2.5560978e-16
1.3677716e-12
-2.2519153e-16
1.3678543e-12
-1.8986637e-16
1.3679234e-12
-1.5494961e-16
1.3679793e-12
-1.2322973e-16
1.3680236e-12
-9.5914898e-17
1.3680579e-12
-7.3270399e-17
1.368084e-12
-5.5037811e-17
1.3681035e-12
-4.0702473e-17
1.3681179e-12
-2.9657579e-17
1.3681284e-12
-2.1299278e-17
1.3681359e-12
-1.5077021e-17
1.3681412e-12
-1.0515748e-17
1.3681449e-12
-7.2212621e-18
1.3681475e-12
-4.8761336e-18
1.3681492e-12
-3.2309693e-18
1.3681503e-12
-2.0939094e-18
1.3681511e-12
-1.3201222e-18
1.3681515e-12
-8.0215734e-19
1.3681518e-12
-4.6161738e-19
1.368152e-12
-2.4221329e-19
1.3681521e-12
-1.041834e-19
1.3681521e-12
-1.9890254e-20
1.3681521e-12
2.954911e-20
1.3681521e-12
5.681757e-20
1.3681521e-12
7.0272501e-20
1.3681521e-12
7.5320849e-20
1.368152e-12
7.5385282e-20
1.368152e-12
7.2593161e-20
1.368152e-12
6.8234974e-20
1.3681519e-12
6.3084698e-20
1.3681519e-12
5.7595825e-20
1.3681519e-12
5.203895e-20
1.3681519e-12
4.6573149e-20
1.3681519e-12
4.1301078e-20
1.3681518e-12
3.6286973e-20
1.3681518e-12
3.1578895e-20
1.3681518e-12
2.7206986e-20
1.3681518e-12
2.3195112e-20
1.3681518e-12
1.9553356e-20
1.3681518e-12
1.6287676e-20
1.3681518e-12
1.3391401e-20
1.3681518e-12
1.0855488e-20
1.3681518e-12
8.6599566e-21
1.3681518e-12
6.7850696e-21
1.3681518e-12
5.2024019e-21
1.3681518e-12
3.8867329e-21
1.3681517e-12
2.8062939e-21
1.3681517e-12
1.9351191e-21
1.3681517e-12
1.2421781e-21
1.3681517e-12
7.0416357e-22
1.3681517e-12
2.9341004e-22
1.3681517e-12
-8.8543997e-24
1.3681517e-12
-2.2575594e-22
1.3681517e-12
-3.7093858e-22
1.3681517e-12
-4.628451e-22
1.3681517e-12
-5.1028506e-22
1.3681517e-12
-5.2753676e-22
1.3681517e-12
-5.1933423e-22
1.3681517e-12
-4.9659505e-22
1.3681517e-12
-4.6088778e-22
1.3681517e-12
-4.2060979e-22
1.3681517e-12
-3.7507523e-22
1.3681517e-12
-3.3087165e-22
1.3681517e-12
-2.8580593e-22
1.3681517e-12
-2.4523403e-22
1.3681517e-12
-2.060554e-22
1.3681517e-12
-1.7277601e-22
1.3681517e-12
-1.4181799e-22
1.3681517e-12
-1.1709366e-22
1.3681517e-12
-9.4858981e-23
1.3681517e-12
-7.8566693e-23
1.3681517e-12
-6.4505718e-23
1.3681517e-12
-5.5755451e-23
1.3681517e-12
-4.8771947e-23
1.3681517e-12
-4.6293669e-23
1.3681517e-12
-4.5025567e-23
1.3681517e-12
-4.7403438e-23
1.3681517e-12
-5.0429704e-23
1.3681517e-12
-5.6247434e-23
1.3681517e-12
-6.2180575e-23
1.3681517e-12
-7.0111458e-23
1.3681517e-12
-7.769117e-23
1.3681518e-12
-8.6562807e-23
1.3681518e-12
-9.4693401e-23
1.3681518e-12
-1.0353429e-22
1.3681518e-12
-1.1133961e-22
1.3681518e-12
-1.1939461e-22
1.3681518e-12
-1.2620744e-22
1.3681518e-12
-1.3294027e-22
1.3681518e-12
-1.3831334e-22
1.3681518e-12
-1.4340504e-22
1.3681518e-12
-1.4709268e-22
1.3681518e-12
-1.5041428e-22
1.3681518e-12
-1.5236349e-22
1.3681518e-12
-1.5396424e-22
1.3681518e-12
-1.5427023e-22
1.3681518e-12
-1.5433384e-22
1.3681518e-12
-1.5320729e-22
1.3681518e-12
-1.5200989e-22
1.3681518e-12
-1.497284e-22
1.3681518e-12
-1.4761051e-22
1.3681518e-12
-1.4450026e-22
1.3681518e-12
-1.4180539e-22
1.3681518e-12
-1.3815488e-22
1.3681518e-12
-1.3518526e-22
1.3681518e-12
-1.3121786e-22
1.3681518e-12
-1.2817246e-22
1.3681518e-12
-1.2396768e-22
1.3681518e-12
-1.2091049e-22
1.3681518e-12
-1.1643382e-22
1.3681518e-12
-1.1328232e-22
1.3681518e-12
-1.0832492e-22
1.3681518e-12
-1.0484265e-22
1.3681518e-12
-9.9076808e-23
1.3681517e-12
-9.4899246e-23
1.3681517e-12
-8.7870309e-23
1.3681517e-12
-8.2513789e-23
1.3681517e-12
-7.3701806e-23
1.3681517e-12
-6.6604416e-23
1.3681517e-12
-5.5383842e-23
1.3681517e-12
-4.5842455e-23
1.3681517e-12
-3.1445673e-23
1.3681517e-12
-1.8527843e-23
1.3681517e-12
1.3606562e-25
1.3681517e-12
1.7807778e-23
1.3681517e-12
4.2389833e-23
1.3681517e-12
6.6968019e-23
1.3681517e-12
1.0011581e-22
1.3681517e-12
1.3498008e-22
1.3681517e-12
1.8080719e-22
1.3681517e-12
2.311178e-22
1.3681517e-12
2.9580921e-22
1.3681517e-12
3.6904664e-22
1.3681517e-12
4.6131231e-22
1.3681517e-12
5.6760929e-22
1.3681517e-12
6.9878857e-22
1.3681517e-12
8.5065722e-22
1.3681517e-12
1.0338826e-21
1.3681517e-12
1.2445698e-21
1.3681517e-12
1.4920913e-21
1.3681517e-12
1.7715299e-21
1.3681517e-12
2.0888523e-21
1.3681517e-12
2.4355326e-21
1.3681517e-12
2.810522e-21
1.3681517e-12
3.1973106e-21
1.3681517e-12
3.5822571e-21
1.3681517e-12
3.9343091e-21
1.3681517e-12
4.2195069e-21
1.3681517e-12
4.3837365e-21
1.3681517e-12
4.3635649e-21
1.3681517e-12
4.0727413e-21
1.3681517e-12
3.4101551e-21
1.3681517e-12
2.2513234e-21
1.3681517e-12
4.5515093e-22
1.3681517e-12
-2.1377574e-21
1.3681517e-12
-5.6968892e-21
1.3681517e-12
-1.0394561e-20
1.3681518e-12
-1.6393014e-20
1.3681518e-12
-2.3826887e-20
1.3681518e-12
-3.2783445e-20
1.3681518e-12
-4.3276771e-20
1.3681518e-12
-5.5224047e-20
1.3681519e-12
-6.8421642e-20
1.3681519e-12
-8.2532107e-20
1.368152e-12
-9.7088395e-20
1.368152e-12
-1.1153488e-19
1.3681521e-12
-1.2531329e-19
1.3681522e-12
-1.380024e-19
1.3681523e-12
-1.4961876e-19
1.3681524e-12
-1.6111247e-19
1.3681525e-12
-1.7445305e-19
1.3681526e-12
-1.926899e-19
1.3681527e-12
-2.2258004e-19
-2.7098616e-19
2.1744707e-12
2.7791426e-13
2.2578326e-12
5.5164975e-13
2.2722272e-12
6.179775e-13
2.2333031e-12
5.7396017e-13
2.1680154e-12
4.8540236e-13
2.0963589e-12
3.8859134e-13
2.0296743e-12
3.0030117e-13
1.9729064e-12
2.2637891e-13
1.9272051e-12
1.6740746e-13
1.8918127e-12
1.2179466e-13
1.8651969e-12
8.728088e-14
1.8456572e-12
6.16136e-14
1.8316144e-12
4.2810212e-14
1.8217238e-12
2.9229111e-14
1.8148989e-12
1.9558598e-14
1.8102921e-12
1.2775192e-14
1.8072601e-12
8.0944924e-15
1.8053248e-12
4.9243181e-15
1.8041377e-12
2.8237134e-15
1.8034497e-12
1.4686859e-15
1.8030856e-12
6.2437886e-16
1.8029246e-12
1.229337e-16
1.8028854e-12
-1.5382139e-16
1.8029141e-12
-2.8770684e-16
1.8029765e-12
-3.3431812e-16
1.8030515e-12
-3.3060942e-16
1.8031268e-12
-3.0049497e-16
1.8031959e-12
-2.5892806e-16
1.8032557e-12
-2.148281e-16
1.8033057e-12
-1.731485e-16
1.8033461e-12
-1.3631291e-16
1.803378e-12
-1.05194e-16
1.8034027e-12
-7.9765843e-17
1.8034215e-12
-5.952736e-17
1.8034356e-12
-4.3767982e-17
1.8034461e-12
-3.1726768e-17
1.8034537e-12
-2.2681276e-17
1.8034592e-12
-1.5991541e-17
1.8034631e-12
-1.111636e-17
1.8034658e-12
-7.6134935e-18
1.8034677e-12
-5.1312665e-18
1.803469e-12
-3.3963284e-18
1.8034699e-12
-2.2003958e-18
1.8034705e-12
-1.3876134e-18
1.8034708e-12
-8.4330397e-19
1.8034711e-12
-4.8444745e-19
1.8034712e-12
-2.5187942e-19
1.8034713e-12
-1.0409663e-19
1.8034714e-12
-1.2434965e-20
1.8034714e-12
4.2586972e-20
1.8034714e-12
7.4004411e-20
1.8034714e-12
9.0399048e-20
1.8034713e-12
9.7339691e-20
1.8034713e-12
9.8387962e-20
1.8034713e-12
9.5802226e-20
1.8034713e-12
9.100433e-20
1.8034712e-12
8.4897128e-20
1.8034712e-12
7.8059724e-20
1.8034712e-12
7.0878805e-20
1.8034712e-12
6.3618992e-20
1.8034711e-12
5.6473143e-20
1.8034711e-12
4.9581457e-20
1.8034711e-12
4.3051196e-20
1.8034711e-12
3.6957942e-20
1.8034711e-12
3.1356261e-20
1.8034711e-12
2.6276204e-20
1.8034711e-12
2.173263e-20
1.8034711e-12
1.7720908e-20
1.803471e-12
1.4226792e-20
1.803471e-12
1.1221785e-20
1.803471e-12
8.6735579e-21
1.803471e-12
6.5405047e-21
1.803471e-12
4.7823306e-21
1.803471e-12
3.3533668e-21
1.803471e-12
2.2131469e-21
1.803471e-12
1.3183078e-21
1.803471e-12
6.3314626e-22
1.803471e-12
1.2020339e-22
1.803471e-12
-2.4908087e-22
1.803471e-12
-5.0491496e-22
1.803471e-12
-6.6824011e-22
1.803471e-12
-7.6217125e-22
1.803471e-12
-8.0074477e-22
1.803471e-12
-8.0096332e-22
1.803471e-12
-7.7120954e-22
1.803471e-12
-7.2367303e-22
1.803471e-12
-6.6247912e-22
1.803471e-12
-5.9627401e-22
1.803471e-12
-5.2619136e-22
1.803471e-12
-4.5840574e-22
1.803471e-12
-3.9211377e-22
1.803471e-12
-3.3182713e-22
1.803471e-12
-2.7557928e-22
1.803471e-12
-2.2680344e-22
1.803471e-12
-1.8293058e-22
1.803471e-12
-1.4667522e-22
1.803471e-12
-1.1523931e-22
1.803471e-12
-9.0847867e-23
1.803471e-12
-7.0702989e-23
1.803471e-12
-5.6670616e-23
1.803471e-12
-4.6098942e-23
1.803471e-12
-4.0566912e-23
1.803471e-12
-3.7651196e-23
1.803471e-12
-3.8690097e-23
1.803471e-12
-4.1528153e-23
1.803471e-12
-4.7292939e-23
1.803471e-12
-5.4109753e-23
1.803471e-12
-6.2930737e-23
1.803471e-12
-7.2158286e-23
1.803471e-12
-8.2591639e-23
1.803471e-12
-9.2900343e-23
1.803471e-12
-1.0377019e-22
1.803471e-12
-1.1409987e-22
1.803471e-12
-1.2448549e-22
1.803471e-12
-1.3403199e-22
1.803471e-12
-1.4328499e-22
1.803471e-12
-1.515117e-22
1.803471e-12
-1.5923766e-22
1.803471e-12
-1.6585449e-22
1.803471e-12
-1.7190168e-22
1.803471e-12
-1.7684466e-22
1.803471e-12
-1.8126783e-22
1.803471e-12
-1.8466194e-22
1.803471e-12
-1.8768011e-22
1.803471e-12
-1.8977576e-22
1.803471e-12
-1.9171388e-22
1.803471e-12
-1.9285518e-22
1.803471e-12
-1.9410475e-22
1.803471e-12
-1.9463458e-22
1.803471e-12
-1.9554004e-22
1.803471e-12
-1.9572963e-22
1.803471e-12
-1.9652712e-22
1.803471e-12
-1.9648512e-22
1.803471e-12
-1.9720809e-22
1.803471e-12
-1.9683338e-22
1.803471e-12
-1.9730277e-22
1.803471e-12
-1.9624834e-22
1.803471e-12
-1.9601847e-22
1.803471e-12
-1.9370123e-22
1.803471e-12
-1.9210095e-22
1.803471e-12
-1.8771235e-22
1.803471e-12
-1.8384487e-22
1.803471e-12
-1.7639859e-22
1.803471e-12
-1.6919969e-22
1.803471e-12
-1.5753724e-22
1.803471e-12
-1.4573465e-22
1.803471e-12
-1.2847967e-22
1.803471e-12
-1.1050127e-22
1.803471e-12
-8.5870453e-23
1.803471e-12
-5.9588587e-23
1.803471e-12
-2.5097216e-23
1.803471e-12
1.2550371e-23
1.803471e-12
6.060797e-23
1.803471e-12
1.1423607e-22
1.803471e-12
1.8144262e-22
1.803471e-12
2.5793101e-22
1.803471e-12
3.5255282e-22
1.803471e-12
4.6186747e-22
1.803471e-12
5.9559153e-22
1.803471e-12
7.5138409e-22
1.803471e-12
9.3969179e-22
1.803471e-12
1.1592465e-21
1.803471e-12
1.4207335e-21
1.803471e-12
1.7233733e-21
1.803471e-12
2.076868e-21
1.803471e-12
2.4793721e-21
1.803471e-12
2.9371201e-21
1.803471e-12
3.4439932e-21
1.803471e-12
3.9982835e-21
1.803471e-12
4.5839437e-21
1.803471e-12
5.1840345e-21
1.803471e-12
5.7637136e-21
1.803471e-12
6.2800651e-21
1.803471e-12
6.6670717e-21
1.803471e-12
6.841903e-21
1.803471e-12
6.6924679e-21
1.803471e-12
6.0809401e-21
1.803471e-12
4.8352127e-21
1.803471e-12
2.7514998e-21
1.803471e-12
-4.0804611e-22
1.803471e-12
-4.9104583e-21
1.803471e-12
-1.1044988e-20
1.803471e-12
-1.9111649e-20
1.803471e-12
-2.9401554e-20
1.8034711e-12
-4.2174819e-20
1.8034711e-12
-5.7626893e-20
1.8034711e-12
-7.5855523e-20
1.8034712e-12
-9.6818637e-20
1.8034712e-12
-1.2030064e-19
1.8034713e-12
-1.4588154e-19
1.8034714e-12
-1.729329e-19
1.8034714e-12
-2.0064555e-19
1.8034715e-12
-2.2811462e-19
1.8034717e-12
-2.5450114e-19
1.8034718e-12
-2.7929821e-19
1.8034719e-12
-3.0277099e-19
1.8034721e-12
-3.2642736e-19
1.8034722e-12
-3.5312192e-19
1.8034724e-12
-3.8728577e-19
-4.4531861e-19
2.1563199e-12
2.0492765e-13
2.2587177e-12
4.4925197e-13
2.3309398e-12
5.4575542e-13
2.3622925e-12
5.4260747e-13
2.3619513e-12
4.8574362e-13
2.3429392e-12
4.0760336e-13
2.3158691e-12
3.2737127e-13
2.2875869e-12
2.5466112e-13
2.2617779e-12
1.9321645e-13
2.2399971e-12
1.4357552e-13
2.222548e-12
1.0472991e-13
2.2090926e-12
7.5069044e-14
2.1990257e-12
5.2877086e-14
2.1916853e-12
3.6569557e-14
2.1864567e-12
2.4787173e-14
2.1828162e-12
1.6415663e-14
2.1803407e-12
1.0570058e-14
2.1787007e-12
6.5643049e-15
2.1776473e-12
3.8770786e-15
2.1769969e-12
2.1191493e-15
2.1766166e-12
1.0046357e-15
2.1764126e-12
3.2688941e-16
2.1763199e-12
-6.1066042e-17
2.1762942e-12
-2.6200119e-16
2.1763063e-12
-3.4645406e-16
2.1763375e-12
-3.6183093e-16
2.1763762e-12
-3.3920876e-16
2.1764157e-12
-2.98339e-16
2.1764521e-12
-2.5127086e-16
2.1764839e-12
-2.0493279e-16
2.1765105e-12
-1.6294096e-16
2.1765322e-12
-1.2684289e-16
2.1765493e-12
-9.6954898e-17
2.1765627e-12
-7.2912391e-17
2.176573e-12
-5.4020469e-17
2.1765807e-12
-3.9468522e-17
2.1765865e-12
-2.8454176e-17
2.1765908e-12
-2.0248441e-17
2.1765939e-12
-1.4224035e-17
2.1765961e-12
-9.8616866e-18
2.1765977e-12
-6.744191e-18
2.1765989e-12
-4.5444544e-18
2.1765997e-12
-3.0113704e-18
2.1766003e-12
-1.9557475e-18
2.1766007e-12
-1.237483e-18
2.1766009e-12
-7.5449763e-19
2.1766011e-12
-4.3356883e-19
2.1766012e-12
-2.2296207e-19
2.1766013e-12
-8.6663333e-20
2.1766013e-12
4.1073502e-23
2.1766014e-12
5.3877385e-20
2.1766014e-12
8.6025269e-20
2.1766014e-12
1.0387679e-19
2.1766013e-12
1.12285e-19
2.1766013e-12
1.1442787e-19
2.1766013e-12
1.1239846e-19
2.1766013e-12
1.0759443e-19
2.1766013e-12
1.0097381e-19
2.1766012e-12
9.3213825e-20
2.1766012e-12
8.4811649e-20
2.1766012e-12
7.6141809e-20
2.1766012e-12
6.7493024e-20
2.1766012e-12
5.9086507e-20
2.1766012e-12
5.1090457e-20
2.1766011e-12
4.3625983e-20
2.1766011e-12
3.6775714e-20
2.1766011e-12
3.0586848e-20
2.1766011e-12
2.5078989e-20
2.1766011e-12
2.0246587e-20
2.1766011e-12
1.6066743e-20
2.1766011e-12
1.2500951e-20
2.1766011e-12
9.502465e-21
2.1766011e-12
7.0168138e-21
2.1766011e-12
4.9883549e-21
2.1766011e-12
3.3593296e-21
2.1766011e-12
2.0755445e-21
2.1766011e-12
1.0839887e-21
2.1766011e-12
3.3781996e-22
2.1766011e-12
-2.0719606e-22
2.1766011e-12
-5.8812842e-22
2.1766011e-12
-8.3930672e-22
2.1766011e-12
-9.8796748e-22
2.1766011e-12
-1.0592107e-21
2.1766011e-12
-1.0716605e-21
2.1766011e-12
-1.0427369e-21
2.1766011e-12
-9.8423265e-22
2.1766011e-12
-9.0768066e-22
2.1766011e-12
-8.1982552e-22
2.1766011e-12
-7.2798568e-22
2.1766011e-12
-6.3543247e-22
2.1766011e-12
-5.4663255e-22
2.1766011e-12
-4.6261184e-22
2.1766011e-12
-3.8600967e-22
2.1766011e-12
-3.1651697e-22
2.1766011e-12
-2.5564712e-22
2.1766011e-12
-2.0236981e-22
2.1766011e-12
-1.5753448e-22
2.1766011e-12
-1.1978549e-22
2.1766011e-12
-8.959558e-23
2.1766011e-12
-6.551993e-23
2.1766011e-12
-4.7815758e-23
2.1766011e-12
-3.5090971e-23
2.1766011e-12
-2.7481845e-23
2.1766011e-12
-2.3717136e-23
2.1766011e-12
-2.3854835e-23
2.1766011e-12
-2.6785973e-23
2.1766011e-12
-3.2515563e-23
2.1766011e-12
-4.011442e-23
2.1766011e-12
-4.9553846e-23
2.1766011e-12
-6.0072104e-23
2.1766011e-12
-7.1627928e-23
2.1766011e-12
-8.3626707e-23
2.1766011e-12
-9.601392e-23
2.1766011e-12
-1.0834666e-22
2.1766011e-12
-1.2057987e-22
2.1766011e-12
-1.3239915e-22
2.1766011e-12
-1.4378481e-22
2.1766011e-12
-1.5453494e-22
2.1766011e-12
-1.6466332e-22
2.1766011e-12
-1.7405558e-22
2.1766011e-12
-1.8277381e-22
2.1766011e-12
-1.9076424e-22
2.1766011e-12
-1.9813817e-22
2.1766011e-12
-2.0486278e-22
2.1766011e-12
-2.1111657e-22
2.1766011e-12
-2.1685627e-22
2.1766011e-12
-2.2232474e-22
2.1766011e-12
-2.2741055e-22
2.1766011e-12
-2.3242682e-22
2.1766011e-12
-2.3714881e-22
2.1766011e-12
-2.4196191e-22
2.1766011e-12
-2.4645994e-22
2.1766011e-12
-2.511088e-22
2.1766011e-12
-2.5528118e-22
2.1766011e-12
-2.5954682e-22
2.1766011e-12
-2.6300152e-22
2.1766011e-12
-2.6633877e-22
2.1766011e-12
-2.683621e-22
2.1766011e-12
-2.6991254e-22
2.1766011e-12
-2.6947333e-22
2.1766011e-12
-2.6805855e-22
2.1766011e-12
-2.6383637e-22
2.1766011e-12
-2.5800646e-22
2.1766011e-12
-2.4840654e-22
2.1766011e-12
-2.3641502e-22
2.1766011e-12
-2.1953551e-22
2.1766011e-12
-1.9926906e-22
2.1766011e-12
-1.7272623e-22
2.1766011e-12
-1.4142535e-22
2.1766011e-12
-1.0202385e-22
2.1766011e-12
-5.5887168e-23
2.1766011e-12
9.1996718e-25
2.1766011e-12
6.7431542e-23
2.1766011e-12
1.4832991e-22
2.1766011e-12
2.4333723e-22
2.1766011e-12
3.5809837e-22
2.1766011e-12
4.9333771e-22
2.1766011e-12
6.5582983e-22
2.1766011e-12
8.4754583e-22
2.1766011e-12
1.0764339e-21
2.1766011e-12
1.3457146e-21
2.1766011e-12
1.6641789e-21
2.1766011e-12
2.0357749e-21
2.1766011e-12
2.4690576e-21
2.1766011e-12
2.9671299e-21
2.1766011e-12
3.5358797e-21
2.1766011e-12
4.1742159e-21
2.1766011e-12
4.8806629e-21
2.1766011e-12
5.6437625e-21
2.1766011e-12
6.446588e-21
2.1766011e-12
7.2571627e-21
2.1766011e-12
8.0305093e-21
2.1766011e-12
8.6990248e-21
2.1766011e-12
9.1719934e-21
2.1766011e-12
9.3262268e-21
2.1766011e-12
9.0035439e-21
2.1766011e-12
8.0027241e-21
2.1766011e-12
6.0765382e-21
2.1766011e-12
2.9272482e-21
2.1766011e-12
-1.7937596e-21
2.1766011e-12
-8.4831766e-21
2.1766011e-12
-1.7578855e-20
2.1766011e-12
-2.9544735e-20
2.1766011e-12
-4.4851078e-20
2.1766011e-12
-6.3942352e-20
2.1766012e-12
-8.7200584e-20
2.1766012e-12
-1.1489548e-19
2.1766012e-12
-1.4713388e-19
2.1766013e-12
-1.838019e-19
2.1766014e-12
-2.2451713e-19
2.1766015e-12
-2.6859415e-19
2.1766016e-12
-3.1504559e-19
2.1766017e-12
-3.6262444e-19
2.1766019e-12
-4.0990199e-19
2.1766021e-12
-4.5554819e-19
2.1766023e-12
-4.9886419e-19
2.1766025e-12
-5.3989138e-19
2.1766027e-12
-5.7851769e-19
2.1766029e-12
-6.2037465e-19
-6.8292649e-19
2.1401121e-12
1.4814886e-13
2.2418936e-12
3.4747045e-13
2.3411842e-12
4.4646486e-13
2.4174418e-12
4.6634991e-13
2.4674479e-12
4.3573748e-13
2.495825e-12
3.7922623e-13
2.5091442e-12
3.1405207e-13
2.5131984e-12
2.5060698e-13
2.5122072e-12
1.9420763e-13
2.5089012e-12
1.4688154e-13
2.5048826e-12
1.0874848e-13
2.5009967e-12
7.8954965e-14
2.4976234e-12
5.6250445e-14
2.4948787e-12
3.9314205e-14
2.4927431e-12
2.6922818e-14
2.4911367e-12
1.8022065e-14
2.4899616e-12
1.1745107e-14
2.4891231e-12
7.4027968e-15
2.4885387e-12
4.4614528e-15
2.4881412e-12
2.516722e-15
2.4878777e-12
1.2680854e-15
2.4877085e-12
4.9615117e-16
2.4876039e-12
4.3511436e-17
2.4875427e-12
-2.0079607e-16
2.4875098e-12
-3.1354712e-16
2.4874947e-12
-3.4678099e-16
2.4874904e-12
-3.3494205e-16
2.4874923e-12
-3.001805e-16
2.4874972e-12