/*--------------------------------*- C++ -*----------------------------------*\
| =========                 |                                                 |
| \\      /  F ield         | OpenFOAM: The Open Source CFD Toolbox           |
|  \\    /   O peration     | Version:  2406                                  |
|   \\  /    A nd           | Website:  www.openfoam.com                      |
|    \\/     M anipulation  |                                                 |
\*---------------------------------------------------------------------------*/
FoamFile
{
    version     2.0;
    format      ascii;
    arch        "LSB;label=32;scalar=64";
    class       volVectorField;
    location    "111";
    object      U;
}
// * * * * * * * * * * * * * * * * * * * * * * * * * * * * * * * * * * * * * //

dimensions      [0 1 -1 0 0 0 0];

internalField   nonuniform List<vector> 
4000
(
(0.0031334311 0.000511955 0)
(0.0026463825 0.00042846339 0)
(0.0019208276 0.00021778551 0)
(0.0014287365 0.00011408151 0)
(0.0011382322 6.3327961e-05 0)
(0.00095675604 3.5461879e-05 0)
(0.00084017179 2.0206271e-05 0)
(0.00076446381 1.1823724e-05 0)
(0.00071469549 7.0700555e-06 0)
(0.00068168977 4.2808224e-06 0)
(0.00065974827 2.5976165e-06 0)
(0.00064521643 1.5602425e-06 0)
(0.00063568461 9.1309659e-07 0)
(0.00062953205 5.0868397e-07 0)
(0.0006256541 2.5835522e-07 0)
(0.00062329271 1.068505e-07 0)
(0.00062192741 1.8750648e-08 0)
(0.00062120251 -2.9055058e-08 0)
(0.00062087728 -5.1765757e-08 0)
(0.00062079108 -5.9363992e-08 0)
(0.00062083881 -5.8341168e-08 0)
(0.00062095349 -5.2840083e-08 0)
(0.00062109393 -4.5428817e-08 0)
(0.00062123609 -3.7630544e-08 0)
(0.00062136706 -3.0287432e-08 0)
(0.00062148093 -2.3809147e-08 0)
(0.00062157604 -1.8340744e-08 0)
(0.00062165307 -1.3874022e-08 0)
(0.00062171394 -1.0319801e-08 0)
(0.00062176106 -7.5531939e-09 0)
(0.00062179686 -5.4408761e-09 0)
(0.0006218236 -3.8562546e-09 0)
(0.00062184327 -2.6870985e-09 0)
(0.00062185751 -1.8383018e-09 0)
(0.00062186767 -1.232005e-09 0)
(0.0006218748 -8.0610742e-10 0)
(0.00062187973 -5.1222739e-10 0)
(0.00062188307 -3.1336641e-10 0)
(0.00062188529 -1.8177769e-10 0)
(0.00062188674 -9.69678e-11 0)
(0.00062188765 -4.4086516e-11 0)
(0.0006218882 -1.2520724e-11 0)
(0.00062188852 5.1521138e-12 0)
(0.00062188869 1.4053845e-11 0)
(0.00062188877 1.761898e-11 0)
(0.00062188879 1.8119955e-11 0)
(0.00062188878 1.6993946e-11 0)
(0.00062188875 1.5138704e-11 0)
(0.00062188871 1.3067022e-11 0)
(0.00062188867 1.1069735e-11 0)
(0.00062188864 9.2739741e-12 0)
(0.0006218886 7.7346449e-12 0)
(0.00062188857 6.4425281e-12 0)
(0.00062188854 5.380043e-12 0)
(0.00062188852 4.5050353e-12 0)
(0.0006218885 3.7902558e-12 0)
(0.00062188848 3.196367e-12 0)
(0.00062188846 2.7049569e-12 0)
(0.00062188845 2.2872899e-12 0)
(0.00062188843 1.9354231e-12 0)
(0.00062188842 1.6295165e-12 0)
(0.00062188841 1.3690082e-12 0)
(0.0006218884 1.139417e-12 0)
(0.0006218884 9.4432574e-13 0)
(0.00062188839 7.7178767e-13 0)
(0.00062188839 6.274176e-13 0)
(0.00062188838 5.001328e-13 0)
(0.00062188838 3.9652756e-13 0)
(0.00062188838 3.055867e-13 0)
(0.00062188838 2.345325e-13 0)
(0.00062188837 1.7214272e-13 0)
(0.00062188837 1.2625088e-13 0)
(0.00062188837 8.5373617e-14 0)
(0.00062188837 5.8047941e-14 0)
(0.00062188837 3.2559544e-14 0)
(0.00062188837 1.8220738e-14 0)
(0.00062188837 3.0983711e-15 0)
(0.00062188837 -2.6944245e-15 0)
(0.00062188837 -1.1302624e-14 0)
(0.00062188837 -1.1870524e-14 0)
(0.00062188837 -1.6742636e-14 0)
(0.00062188837 -1.442795e-14 0)
(0.00062188837 -1.7446427e-14 0)
(0.00062188837 -1.3809613e-14 0)
(0.00062188837 -1.6177469e-14 0)
(0.00062188837 -1.2227134e-14 0)
(0.00062188837 -1.466843e-14 0)
(0.00062188837 -1.1026987e-14 0)
(0.00062188837 -1.3962207e-14 0)
(0.00062188837 -1.1000707e-14 0)
(0.00062188837 -1.4633044e-14 0)
(0.00062188837 -1.2553777e-14 0)
(0.00062188837 -1.6946188e-14 0)
(0.00062188837 -1.5825594e-14 0)
(0.00062188837 -2.0934718e-14 0)
(0.00062188837 -2.0737337e-14 0)
(0.00062188837 -2.6433185e-14 0)
(0.00062188837 -2.7031866e-14 0)
(0.00062188837 -3.3094151e-14 0)
(0.00062188837 -3.427238e-14 0)
(0.00062188837 -4.0432835e-14 0)
(0.00062188837 -4.1905579e-14 0)
(0.00062188837 -4.7849106e-14 0)
(0.00062188837 -4.9303413e-14 0)
(0.00062188837 -5.4720201e-14 0)
(0.00062188837 -5.5838299e-14 0)
(0.00062188837 -6.0437946e-14 0)
(0.00062188837 -6.0928963e-14 0)
(0.00062188837 -6.4482618e-14 0)
(0.00062188837 -6.4106381e-14 0)
(0.00062188837 -6.6453304e-14 0)
(0.00062188837 -6.5055241e-14 0)
(0.00062188837 -6.6127503e-14 0)
(0.00062188837 -6.3623091e-14 0)
(0.00062188837 -6.3419044e-14 0)
(0.00062188838 -5.9800784e-14 0)
(0.00062188838 -5.8395134e-14 0)
(0.00062188838 -5.3704291e-14 0)
(0.00062188838 -5.1209907e-14 0)
(0.00062188838 -4.55351e-14 0)
(0.00062188838 -4.2104821e-14 0)
(0.00062188838 -3.555438e-14 0)
(0.00062188838 -3.1350401e-14 0)
(0.00062188838 -2.4032252e-14 0)
(0.00062188838 -1.9231394e-14 0)
(0.00062188838 -1.1254624e-14 0)
(0.00062188838 -6.032028e-15 0)
(0.00062188838 2.4872561e-15 0)
(0.00062188838 7.9324162e-15 0)
(0.00062188838 1.6875915e-14 0)
(0.00062188838 2.232884e-14 0)
(0.00062188838 3.1554783e-14 0)
(0.00062188838 3.6760646e-14 0)
(0.00062188838 4.6102928e-14 0)
(0.00062188838 5.0782044e-14 0)
(0.00062188838 6.0037374e-14 0)
(0.00062188838 6.3865261e-14 0)
(0.00062188837 7.2790044e-14 0)
(0.00062188837 7.5445896e-14 0)
(0.00062188837 8.3775479e-14 0)
(0.00062188837 8.4918447e-14 0)
(0.00062188837 9.2377069e-14 0)
(0.00062188837 9.1710599e-14 0)
(0.00062188837 9.8024056e-14 0)
(0.00062188837 9.5295704e-14 0)
(0.00062188837 1.002137e-13 0)
(0.00062188837 9.5247285e-14 0)
(0.00062188837 9.857452e-14 0)
(0.00062188837 9.1291399e-14 0)
(0.00062188837 9.2891336e-14 0)
(0.00062188837 8.3320147e-14 0)
(0.00062188837 8.3137575e-14 0)
(0.00062188837 7.143514e-14 0)
(0.00062188836 6.9526734e-14 0)
(0.00062188836 5.5991104e-14 0)
(0.00062188836 5.2562046e-14 0)
(0.00062188836 3.7679121e-14 0)
(0.00062188836 3.3119335e-14 0)
(0.00062188836 1.7588713e-14 0)
(0.00062188836 1.2547417e-14 0)
(0.00062188836 -2.657567e-15 0)
(0.00062188836 -7.2416513e-15 0)
(0.00062188836 -2.082224e-14 0)
(0.00062188836 -2.3649905e-14 0)
(0.00062188836 -3.4008679e-14 0)
(0.00062188836 -3.3465196e-14 0)
(0.00062188836 -3.8755518e-14 0)
(0.00062188836 -3.3043884e-14 0)
(0.00062188836 -3.1374535e-14 0)
(0.00062188836 -1.8797618e-14 0)
(0.00062188836 -8.6449063e-15 0)
(0.00062188836 1.1861103e-14 0)
(0.00062188836 3.0966391e-14 0)
(0.00062188836 5.8877535e-14 0)
(0.00062188836 8.5159528e-14 0)
(0.00062188836 1.1696231e-13 0)
(0.00062188836 1.4471941e-13 0)
(0.00062188836 1.7200879e-13 0)
(0.00062188836 1.8954842e-13 0)
(0.00062188836 1.9698747e-13 0)
(0.00062188836 1.8479486e-13 0)
(0.00062188836 1.4890043e-13 0)
(0.00062188836 7.9386138e-14 0)
(0.00062188836 -3.0045689e-14 0)
(0.00062188837 -1.886472e-13 0)
(0.00062188837 -4.0120448e-13 0)
(0.00062188838 -6.7320217e-13 0)
(0.00062188839 -1.0015167e-12 0)
(0.00062188841 -1.3824844e-12 0)
(0.00062188842 -1.7977195e-12 0)
(0.00062188844 -2.2288304e-12 0)
(0.00062188847 -2.6446596e-12 0)
(0.00062188849 -3.0213847e-12 0)
(0.00062188852 -3.3448164e-12 0)
(0.00062188855 -3.7050212e-12 0)
(0.00062188858 -4.4011547e-12 0)
(0.00062188862 -5.7699338e-12 0)
(0.00062188866 -8.7271499e-12 0)
(0.00062188873 -1.9727703e-11 0)
(0.00062188883 -4.3202719e-11 0)
(0.0041984204 0.0010831346 0)
(0.0041271757 0.0012569695 0)
(0.0036402523 0.00092900066 0)
(0.0031437154 0.00062849127 0)
(0.0027525455 0.00041467454 0)
(0.0024583589 0.00027243716 0)
(0.0022428823 0.00018005705 0)
(0.0020881658 0.00011998692 0)
(0.0019783663 8.0446694e-05 0)
(0.0019011121 5.4055255e-05 0)
(0.0018472345 3.6236816e-05 0)
(0.0018100424 2.4118525e-05 0)
(0.0017846839 1.5856408e-05 0)
(0.0017676556 1.023657e-05 0)
(0.0017564372 6.4407027e-06 0)
(0.001749225 3.9065667e-06 0)
(0.0017447362 2.2428266e-06 0)
(0.0017420666 1.1752334e-06 0)
(0.0017405858 5.1134213e-07 0)
(0.0017398604 1.1657712e-07 0)
(0.001739597 -1.0246212e-07 0)
(0.0017396009 -2.098726e-07 0)
(0.0017397463 -2.4898732e-07 0)
(0.0017399544 -2.4854509e-07 0)
(0.0017401781 -2.271432e-07 0)
(0.001740391 -1.9643331e-07 0)
(0.00174058 -1.6339517e-07 0)
(0.0017407403 -1.3193544e-07 0)
(0.0017408716 -1.0399595e-07 0)
(0.0017409764 -8.0308937e-08 0)
(0.0017410582 -6.0901084e-08 0)
(0.0017411209 -4.5421542e-08 0)
(0.001741168 -3.3348566e-08 0)
(0.001741203 -2.4113962e-08 0)
(0.0017412285 -1.717333e-08 0)
(0.0017412468 -1.2041384e-08 0)
(0.0017412598 -8.3057542e-09 0)
(0.0017412688 -5.62808e-09 0)
(0.0017412751 -3.7383147e-09 0)
(0.0017412793 -2.4258295e-09 0)
(0.0017412821 -1.5296257e-09 0)
(0.0017412839 -9.288618e-10 0)
(0.001741285 -5.3438844e-10 0)
(0.0017412857 -2.815176e-10 0)
(0.0017412861 -1.2408532e-10 0)
(0.0017412863 -2.9697365e-11 0)
(0.0017412864 2.3977314e-11 0)
(0.0017412864 5.2045163e-11 0)
(0.0017412864 6.4514032e-11 0)
(0.0017412863 6.7862106e-11 0)
(0.0017412863 6.6170239e-11 0)
(0.0017412862 6.1928768e-11 0)
(0.0017412862 5.6596873e-11 0)
(0.0017412861 5.0986889e-11 0)
(0.001741286 4.5517382e-11 0)
(0.001741286 4.0380312e-11 0)
(0.0017412859 3.5642652e-11 0)
(0.0017412859 3.1310974e-11 0)
(0.0017412859 2.7364634e-11 0)
(0.0017412858 2.3776999e-11 0)
(0.0017412858 2.0521191e-11 0)
(0.0017412858 1.7576093e-11 0)
(0.0017412858 1.492275e-11 0)
(0.0017412857 1.2547252e-11 0)
(0.0017412857 1.0434521e-11 0)
(0.0017412857 8.572631e-12 0)
(0.0017412857 6.9454252e-12 0)
(0.0017412857 5.5397483e-12 0)
(0.0017412857 4.3364836e-12 0)
(0.0017412857 3.3210757e-12 0)
(0.0017412857 2.4720139e-12 0)
(0.0017412857 1.7748133e-12 0)
(0.0017412857 1.2071244e-12 0)
(0.0017412857 7.5635892e-13 0)
(0.0017412857 4.0083226e-13 0)
(0.0017412857 1.3120028e-13 0)
(0.0017412857 -7.2592376e-14 0)
(0.0017412857 -2.1596407e-13 0)
(0.0017412857 -3.1697929e-13 0)
(0.0017412857 -3.7713619e-13 0)
(0.0017412857 -4.1255006e-13 0)
(0.0017412857 -4.212357e-13 0)
(0.0017412857 -4.1764721e-13 0)
(0.0017412857 -3.9700419e-13 0)
(0.0017412857 -3.724437e-13 0)
(0.0017412857 -3.3715064e-13 0)
(0.0017412857 -3.0321654e-13 0)
(0.0017412857 -2.6256327e-13 0)
(0.0017412857 -2.2639225e-13 0)
(0.0017412857 -1.8601968e-13 0)
(0.0017412857 -1.5178978e-13 0)
(0.0017412857 -1.149849e-13 0)
(0.0017412857 -8.502835e-14 0)
(0.0017412857 -5.3621338e-14 0)
(0.0017412857 -2.9137966e-14 0)
(0.0017412857 -4.057106e-15 0)
(0.0017412857 1.4449507e-14 0)
(0.0017412857 3.2858777e-14 0)
(0.0017412857 4.5349253e-14 0)
(0.0017412857 5.7157955e-14 0)
(0.0017412857 6.3914536e-14 0)
(0.0017412857 6.9517845e-14 0)
(0.0017412857 7.108867e-14 0)
(0.0017412857 7.1126618e-14 0)
(0.0017412857 6.8227973e-14 0)
(0.0017412857 6.3547685e-14 0)
(0.0017412857 5.7055753e-14 0)
(0.0017412857 4.8624084e-14 0)
(0.0017412857 3.9490663e-14 0)
(0.0017412857 2.8354846e-14 0)
(0.0017412857 1.7548774e-14 0)
(0.0017412857 4.7527783e-15 0)
(0.0017412857 -6.8051058e-15 0)
(0.0017412857 -2.0278942e-14 0)
(0.0017412857 -3.1764935e-14 0)
(0.0017412857 -4.5073098e-14 0)
(0.0017412857 -5.5844206e-14 0)
(0.0017412857 -6.8347519e-14 0)
(0.0017412857 -7.7988565e-14 0)
(0.0017412857 -8.9326001e-14 0)
(0.0017412857 -9.772729e-14 0)
(0.0017412857 -1.0781537e-13 0)
(0.0017412857 -1.1515583e-13 0)
(0.0017412857 -1.2419878e-13 0)
(0.0017412857 -1.3091898e-13 0)
(0.0017412857 -1.3934426e-13 0)
(0.0017412857 -1.4610083e-13 0)
(0.0017412857 -1.5448182e-13 0)
(0.0017412857 -1.6201778e-13 0)
(0.0017412857 -1.7089307e-13 0)
(0.0017412857 -1.798338e-13 0)
(0.0017412857 -1.8954301e-13 0)
(0.0017412857 -2.0026541e-13 0)
(0.0017412857 -2.1076701e-13 0)
(0.0017412857 -2.2321274e-13 0)
(0.0017412857 -2.340405e-13 0)
(0.0017412857 -2.4769511e-13 0)
(0.0017412857 -2.5788904e-13 0)
(0.0017412857 -2.7172538e-13 0)
(0.0017412857 -2.7991951e-13 0)
(0.0017412857 -2.9254823e-13 0)
(0.0017412857 -2.9711763e-13 0)
(0.0017412857 -3.0689484e-13 0)
(0.0017412857 -3.0619096e-13 0)
(0.0017412857 -3.115339e-13 0)
(0.0017412857 -3.0407947e-13 0)
(0.0017412857 -3.0353947e-13 0)
(0.0017412857 -2.8817775e-13 0)
(0.0017412857 -2.8061471e-13 0)
(0.0017412857 -2.565554e-13 0)
(0.0017412857 -2.4105943e-13 0)
(0.0017412857 -2.0776268e-13 0)
(0.0017412857 -1.8353324e-13 0)
(0.0017412856 -1.404607e-13 0)
(0.0017412856 -1.0644259e-13 0)
(0.0017412856 -5.2646944e-14 0)
(0.0017412856 -7.1366269e-15 0)
(0.0017412856 5.9197471e-14 0)
(0.0017412856 1.1905661e-13 0)
(0.0017412856 2.0113865e-13 0)
(0.0017412856 2.7973071e-13 0)
(0.0017412856 3.8243809e-13 0)
(0.0017412856 4.8590163e-13 0)
(0.0017412856 6.1578902e-13 0)
(0.0017412856 7.5148796e-13 0)
(0.0017412856 9.15816e-13 0)
(0.0017412856 1.0908126e-12 0)
(0.0017412856 1.2950673e-12 0)
(0.0017412856 1.5123907e-12 0)
(0.0017412856 1.7550507e-12 0)
(0.0017412856 2.0066318e-12 0)
(0.0017412856 2.2699468e-12 0)
(0.0017412856 2.5249373e-12 0)
(0.0017412856 2.7605525e-12 0)
(0.0017412856 2.948381e-12 0)
(0.0017412856 3.0581737e-12 0)
(0.0017412856 3.047919e-12 0)
(0.0017412856 2.863312e-12 0)
(0.0017412856 2.4450094e-12 0)
(0.0017412856 1.7133475e-12 0)
(0.0017412856 5.9342948e-13 0)
(0.0017412857 -1.0123838e-12 0)
(0.0017412857 -3.1813556e-12 0)
(0.0017412857 -6.0061236e-12 0)
(0.0017412857 -9.5348672e-12 0)
(0.0017412857 -1.3811007e-11 0)
(0.0017412857 -1.8801205e-11 0)
(0.0017412858 -2.4436964e-11 0)
(0.0017412858 -3.0541995e-11 0)
(0.0017412859 -3.6883554e-11 0)
(0.0017412859 -4.3124058e-11 0)
(0.001741286 -4.8913521e-11 0)
(0.0017412861 -5.3927713e-11 0)
(0.0017412862 -5.8100597e-11 0)
(0.0017412863 -6.1884246e-11 0)
(0.0017412864 -6.6687835e-11 0)
(0.0017412865 -7.5457979e-11 0)
(0.0017412866 -9.418912e-11 0)
(0.0017412867 -1.3238718e-10 0)
(0.0017412869 -1.8977609e-10 0)
(0.0042524352 0.00088385127 0)
(0.0044390588 0.0013446858 0)
(0.0043267442 0.001234766 0)
(0.0040749489 0.00098305931 0)
(0.0037972145 0.00073506174 0)
(0.0035437921 0.00053286564 0)
(0.00333336 0.00038035709 0)
(0.0031680521 0.00026911907 0)
(0.0030426282 0.0001891362 0)
(0.0029497585 0.00013200468 0)
(0.0028823106 9.1362153e-05 0)
(0.0028341516 6.2568689e-05 0)
(0.0028003233 4.2281157e-05 0)
(0.0027769609 2.8093236e-05 0)
(0.0027611248 1.8268073e-05 0)
(0.0027506197 1.1548658e-05 0)
(0.0027438313 7.0245686e-06 0)
(0.0027395898 4.0376214e-06 0)
(0.0027370593 2.1141357e-06 0)
(0.0027356518 9.1561509e-07 0)
(0.0027349598 2.0244091e-07 0)
(0.0027347065 -1.9302817e-07 0)
(0.0027347077 -3.8642446e-07 0)
(0.0027348438 -4.5616164e-07 0)
(0.0027350401 -4.5433017e-07 0)
(0.0027352515 -4.1465955e-07 0)
(0.002735453 -3.5827819e-07 0)
(0.0027356321 -2.9783055e-07 0)
(0.002735784 -2.4037983e-07 0)
(0.0027359086 -1.8942264e-07 0)
(0.0027360081 -1.4626234e-07 0)
(0.0027360858 -1.1092545e-07 0)
(0.0027361454 -8.2757538e-08 0)
(0.0027361903 -6.0798081e-08 0)
(0.0027362236 -4.400593e-08 0)
(0.002736248 -3.1386114e-08 0)
(0.0027362655 -2.2053342e-08 0)
(0.002736278 -1.5256422e-08 0)
(0.0027362868 -1.0379788e-08 0)
(0.0027362928 -6.9327097e-09 0)
(0.002736297 -4.5328656e-09 0)
(0.0027362997 -2.8883183e-09 0)
(0.0027363016 -1.7801703e-09 0)
(0.0027363027 -1.0470709e-09 0)
(0.0027363034 -5.7203033e-10 0)
(0.0027363039 -2.7159477e-10 0)
(0.0027363041 -8.7205034e-11 0)
(0.0027363042 2.1537544e-11 0)
(0.0027363043 8.2011102e-11 0)
(0.0027363043 1.124208e-10 0)
(0.0027363042 1.2462663e-10 0)
(0.0027363042 1.2618362e-10 0)
(0.0027363041 1.2178717e-10 0)
(0.002736304 1.1427648e-10 0)
(0.002736304 1.0531731e-10 0)
(0.0027363039 9.5855035e-11 0)
(0.0027363039 8.640829e-11 0)
(0.0027363038 7.7252297e-11 0)
(0.0027363038 6.8530289e-11 0)
(0.0027363037 6.0316741e-11 0)
(0.0027363037 5.2652377e-11 0)
(0.0027363037 4.5560415e-11 0)
(0.0027363036 3.9054485e-11 0)
(0.0027363036 3.3139967e-11 0)
(0.0027363036 2.7815276e-11 0)
(0.0027363036 2.3070224e-11 0)
(0.0027363035 1.8887502e-11 0)
(0.0027363035 1.5241308e-11 0)
(0.0027363035 1.2100391e-11 0)
(0.0027363035 9.4269949e-12 0)
(0.0027363035 7.1810863e-12 0)
(0.0027363035 5.3188712e-12 0)
(0.0027363035 3.7977581e-12 0)
(0.0027363035 2.5738085e-12 0)
(0.0027363035 1.6070708e-12 0)
(0.0027363035 8.5773757e-13 0)
(0.0027363035 2.9182777e-13 0)
(0.0027363035 -1.2398097e-13 0)
(0.0027363035 -4.1630753e-13 0)
(0.0027363035 -6.1136886e-13 0)
(0.0027363035 -7.2846594e-13 0)
(0.0027363035 -7.8717305e-13 0)
(0.0027363035 -8.0041805e-13 0)
(0.0027363035 -7.8224887e-13 0)
(0.0027363035 -7.4052868e-13 0)
(0.0027363035 -6.8501231e-13 0)
(0.0027363035 -6.1985227e-13 0)
(0.0027363035 -5.5171613e-13 0)
(0.0027363035 -4.8221706e-13 0)
(0.0027363035 -4.1584491e-13 0)
(0.0027363035 -3.5263627e-13 0)
(0.0027363035 -2.9560811e-13 0)
(0.0027363035 -2.4389125e-13 0)
(0.0027363035 -1.9949807e-13 0)
(0.0027363035 -1.6113271e-13 0)
(0.0027363035 -1.301e-13 0)
(0.0027363035 -1.0497115e-13 0)
(0.0027363035 -8.6514976e-14 0)
(0.0027363035 -7.3366304e-14 0)
(0.0027363035 -6.5865478e-14 0)
(0.0027363035 -6.2818166e-14 0)
(0.0027363035 -6.4206529e-14 0)
(0.0027363035 -6.9091093e-14 0)
(0.0027363035 -7.7147926e-14 0)
(0.0027363035 -8.7716126e-14 0)
(0.0027363035 -1.0022468e-13 0)
(0.0027363035 -1.1430289e-13 0)
(0.0027363035 -1.2919911e-13 0)
(0.0027363035 -1.4481807e-13 0)
(0.0027363035 -1.602738e-13 0)
(0.0027363035 -1.7575131e-13 0)
(0.0027363035 -1.9028914e-13 0)
(0.0027363035 -2.0429449e-13 0)
(0.0027363035 -2.1676734e-13 0)
(0.0027363035 -2.2832129e-13 0)
(0.0027363035 -2.3797207e-13 0)
(0.0027363035 -2.4647806e-13 0)
(0.0027363035 -2.5289186e-13 0)
(0.0027363035 -2.5809801e-13 0)
(0.0027363035 -2.6122406e-13 0)
(0.0027363035 -2.6320306e-13 0)
(0.0027363035 -2.6327465e-13 0)
(0.0027363035 -2.6236775e-13 0)
(0.0027363035 -2.5984816e-13 0)
(0.0027363035 -2.5658114e-13 0)
(0.0027363035 -2.5208765e-13 0)
(0.0027363035 -2.4711942e-13 0)
(0.0027363035 -2.4138451e-13 0)
(0.0027363035 -2.3539656e-13 0)
(0.0027363035 -2.2909438e-13 0)
(0.0027363035 -2.2267762e-13 0)
(0.0027363035 -2.1636797e-13 0)
(0.0027363035 -2.0992034e-13 0)
(0.0027363035 -2.0388446e-13 0)
(0.0027363035 -1.9752263e-13 0)
(0.0027363035 -1.9179878e-13 0)
(0.0027363035 -1.8536481e-13 0)
(0.0027363035 -1.7964461e-13 0)
(0.0027363035 -1.7265184e-13 0)
(0.0027363035 -1.6637023e-13 0)
(0.0027363035 -1.5812632e-13 0)
(0.0027363035 -1.504745e-13 0)
(0.0027363035 -1.4007904e-13 0)
(0.0027363035 -1.3014275e-13 0)
(0.0027363035 -1.1666302e-13 0)
(0.0027363035 -1.0341124e-13 0)
(0.0027363035 -8.5780552e-14 0)
(0.0027363035 -6.8050232e-14 0)
(0.0027363035 -4.5019148e-14 0)
(0.0027363035 -2.1289812e-14 0)
(0.0027363035 8.9003908e-15 0)
(0.0027363035 4.0847118e-14 0)
(0.0027363035 8.0919964e-14 0)
(0.0027363035 1.2464903e-13 0)
(0.0027363035 1.7902361e-13 0)
(0.0027363035 2.4016839e-13 0)
(0.0027363035 3.1579944e-13 0)
(0.0027363035 4.0301457e-13 0)
(0.0027363035 5.102926e-13 0)
(0.0027363035 6.3602418e-13 0)
(0.0027363035 7.8937805e-13 0)
(0.0027363035 9.7016105e-13 0)
(0.0027363035 1.1878906e-12 0)
(0.0027363035 1.4433792e-12 0)
(0.0027363035 1.7455161e-12 0)
(0.0027363035 2.0949243e-12 0)
(0.0027363035 2.4978053e-12 0)
(0.0027363035 2.9518751e-12 0)
(0.0027363035 3.4568579e-12 0)
(0.0027363035 4.0026849e-12 0)
(0.0027363035 4.5762789e-12 0)
(0.0027363035 5.1520292e-12 0)
(0.0027363035 5.6946298e-12 0)
(0.0027363035 6.1520172e-12 0)
(0.0027363035 6.4544453e-12 0)
(0.0027363035 6.5104094e-12 0)
(0.0027363034 6.2027908e-12 0)
(0.0027363034 5.3890767e-12 0)
(0.0027363034 3.8964339e-12 0)
(0.0027363034 1.5285071e-12 0)
(0.0027363035 -1.9373052e-12 0)
(0.0027363035 -6.7333602e-12 0)
(0.0027363035 -1.309785e-11 0)
(0.0027363035 -2.1245386e-11 0)
(0.0027363035 -3.1352284e-11 0)
(0.0027363035 -4.3513702e-11 0)
(0.0027363036 -5.7718285e-11 0)
(0.0027363036 -7.379988e-11 0)
(0.0027363037 -9.1415096e-11 0)
(0.0027363038 -1.1001641e-10 0)
(0.0027363039 -1.2887568e-10 0)
(0.002736304 -1.4714859e-10 0)
(0.0027363042 -1.6404487e-10 0)
(0.0027363043 -1.7909588e-10 0)
(0.0027363045 -1.9268277e-10 0)
(0.0027363046 -2.0680295e-10 0)
(0.0027363048 -2.2569605e-10 0)
(0.002736305 -2.5620909e-10 0)
(0.0027363053 -3.1013857e-10 0)
(0.0027363055 -3.9602732e-10 0)
(0.0042288488 0.00064626571 0)
(0.0044651811 0.0012046281 0)
(0.004560212 0.0012867045 0)
(0.0045234914 0.0011487026 0)
(0.0044082034 0.00093924766 0)
(0.0042640069 0.00073080996 0)
(0.0041220256 0.00055157115 0)
(0.0039973174 0.00040778628 0)
(0.0038948775 0.00029677023 0)
(0.003814397 0.00021306188 0)
(0.0037531949 0.0001509811 0)
(0.0037078395 0.00010554512 0)
(0.0036749633 7.2687466e-05 0)
(0.0036516141 4.920845e-05 0)
(0.0036353619 3.2642861e-05 0)
(0.0036242869 2.1117997e-05 0)
(0.0036169161 1.3227144e-05 0)
(0.0036121459 7.9244734e-06 0)
(0.003609166 4.4405145e-06 0)
(0.003607392 2.2153325e-06 0)
(0.0036064103 8.4630847e-07 0)
(0.0036059334 4.7715409e-08 0)
(0.0036057652 -3.8027725e-07 0)
(0.0036057756 -5.7513428e-07 0)
(0.0036058799 -6.2962548e-07 0)
(0.0036060252 -6.0494423e-07 0)
(0.0036061799 -5.4032732e-07 0)
(0.0036063265 -4.6001661e-07 0)
(0.0036064563 -3.782261e-07 0)
(0.0036065661 -3.0263148e-07 0)
(0.0036066561 -2.3678013e-07 0)
(0.0036067278 -1.8172306e-07 0)
(0.0036067838 -1.3709517e-07 0)
(0.0036068268 -1.0181007e-07 0)
(0.0036068592 -7.4491123e-08 0)
(0.0036068833 -5.3725355e-08 0)
(0.0036069009 -3.8201572e-08 0)
(0.0036069137 -2.6775087e-08 0)
(0.0036069229 -1.8487887e-08 0)
(0.0036069293 -1.2563361e-08 0)
(0.0036069338 -8.3879414e-09 0)
(0.0036069369 -5.4873384e-09 0)
(0.003606939 -3.5019443e-09 0)
(0.0036069405 -2.1638862e-09 0)
(0.0036069414 -1.2769305e-09 0)
(0.003606942 -6.9962846e-10 0)
(0.0036069424 -3.3163562e-10 0)
(0.0036069426 -1.0290065e-10 0)
(0.0036069427 3.4688046e-11 0)
(0.0036069428 1.1362296e-10 0)
(0.0036069428 1.5547208e-10 0)
(0.0036069427 1.7429879e-10 0)
(0.0036069427 1.791101e-10 0)
(0.0036069427 1.7557342e-10 0)
(0.0036069426 1.6719909e-10 0)
(0.0036069425 1.5613472e-10 0)
(0.0036069425 1.436887e-10 0)
(0.0036069424 1.3066346e-10 0)
(0.0036069424 1.1756359e-10 0)
(0.0036069423 1.0471872e-10 0)
(0.0036069423 9.2355466e-11 0)
(0.0036069423 8.0635055e-11 0)
(0.0036069422 6.9674343e-11 0)
(0.0036069422 5.9554657e-11 0)
(0.0036069422 5.0327875e-11 0)
(0.0036069421 4.2018525e-11 0)
(0.0036069421 3.4627588e-11 0)
(0.0036069421 2.81345e-11 0)
(0.0036069421 2.2501557e-11 0)
(0.0036069421 1.767661e-11 0)
(0.0036069421 1.3597775e-11 0)
(0.0036069421 1.0196126e-11 0)
(0.0036069421 7.3998466e-12 0)
(0.0036069421 5.1362255e-12 0)
(0.0036069421 3.3347418e-12 0)
(0.0036069421 1.9281477e-12 0)
(0.0036069421 8.5439375e-13 0)
(0.0036069421 5.6855548e-14 0)
(0.0036069421 -5.1474381e-13 0)
(0.0036069421 -9.0462611e-13 0)
(0.0036069421 -1.1507962e-12 0)
(0.0036069421 -1.2856209e-12 0)
(0.0036069421 -1.3361234e-12 0)
(0.0036069421 -1.3245826e-12 0)
(0.0036069421 -1.2690993e-12 0)
(0.0036069421 -1.184084e-12 0)
(0.0036069421 -1.0809598e-12 0)
(0.0036069421 -9.6841779e-13 0)
(0.0036069421 -8.5315695e-13 0)
(0.0036069421 -7.3996824e-13 0)
(0.0036069421 -6.3243712e-13 0)
(0.0036069421 -5.3282356e-13 0)
(0.0036069421 -4.427545e-13 0)
(0.0036069421 -3.6296338e-13 0)
(0.0036069421 -2.9389447e-13 0)
(0.0036069421 -2.3542015e-13 0)
(0.0036069421 -1.8731331e-13 0)
(0.0036069421 -1.4898484e-13 0)
(0.0036069421 -1.198464e-13 0)
(0.0036069421 -9.9105973e-14 0)
(0.0036069421 -8.598922e-14 0)
(0.0036069421 -7.9653568e-14 0)
(0.0036069421 -7.9245643e-14 0)
(0.0036069421 -8.3978156e-14 0)
(0.0036069421 -9.2959548e-14 0)
(0.0036069421 -1.0550351e-13 0)
(0.0036069421 -1.2074309e-13 0)
(0.0036069421 -1.3813126e-13 0)
(0.0036069421 -1.5683702e-13 0)
(0.0036069421 -1.7647305e-13 0)
(0.0036069421 -1.9628207e-13 0)
(0.0036069421 -2.1604379e-13 0)
(0.0036069421 -2.3507234e-13 0)
(0.0036069421 -2.5330668e-13 0)
(0.0036069421 -2.7015174e-13 0)
(0.0036069421 -2.8570436e-13 0)
(0.0036069421 -2.9945788e-13 0)
(0.0036069421 -3.1164989e-13 0)
(0.0036069421 -3.2186201e-13 0)
(0.0036069421 -3.3047199e-13 0)
(0.0036069421 -3.371304e-13 0)
(0.0036069421 -3.4232016e-13 0)
(0.0036069421 -3.4575381e-13 0)
(0.0036069421 -3.4799459e-13 0)
(0.0036069421 -3.4878728e-13 0)
(0.0036069421 -3.4874615e-13 0)
(0.0036069421 -3.4765385e-13 0)
(0.0036069421 -3.4612846e-13 0)
(0.0036069421 -3.4392141e-13 0)
(0.0036069421 -3.4162543e-13 0)
(0.0036069421 -3.3895018e-13 0)
(0.0036069421 -3.3641511e-13 0)
(0.0036069421 -3.3363528e-13 0)
(0.0036069421 -3.3100839e-13 0)
(0.0036069421 -3.2810914e-13 0)
(0.0036069421 -3.2518127e-13 0)
(0.0036069421 -3.2171009e-13 0)
(0.0036069421 -3.1778445e-13 0)
(0.0036069421 -3.1285868e-13 0)
(0.0036069421 -3.0685664e-13 0)
(0.0036069421 -2.9921095e-13 0)
(0.0036069421 -2.8967572e-13 0)
(0.0036069421 -2.7772702e-13 0)
(0.0036069421 -2.629654e-13 0)
(0.0036069421 -2.4489476e-13 0)
(0.0036069421 -2.2291864e-13 0)
(0.0036069421 -1.9657025e-13 0)
(0.0036069421 -1.6499462e-13 0)
(0.0036069421 -1.2763487e-13 0)
(0.0036069421 -8.3243373e-14 0)
(0.0036069421 -3.1057674e-14 0)
(0.003606942 3.0771598e-14 0)
(0.003606942 1.0351948e-13 0)
(0.003606942 1.8988927e-13 0)
(0.003606942 2.9196181e-13 0)
(0.003606942 4.1363169e-13 0)
(0.003606942 5.5818743e-13 0)
(0.003606942 7.3101941e-13 0)
(0.003606942 9.3691648e-13 0)
(0.003606942 1.182952e-12 0)
(0.003606942 1.4754884e-12 0)
(0.003606942 1.8230665e-12 0)
(0.003606942 2.2331074e-12 0)
(0.003606942 2.7145122e-12 0)
(0.003606942 3.2740861e-12 0)
(0.003606942 3.918469e-12 0)
(0.003606942 4.6500965e-12 0)
(0.003606942 5.4681325e-12 0)
(0.003606942 6.3636719e-12 0)
(0.003606942 7.3192614e-12 0)
(0.003606942 8.3031692e-12 0)
(0.003606942 9.2670748e-12 0)
(0.003606942 1.0139371e-11 0)
(0.003606942 1.0821114e-11 0)
(0.003606942 1.1178772e-11 0)
(0.003606942 1.1039269e-11 0)
(0.003606942 1.0183691e-11 0)
(0.003606942 8.3435565e-12 0)
(0.003606942 5.1986263e-12 0)
(0.003606942 3.7836025e-13 0)
(0.003606942 -6.5310786e-12 0)
(0.003606942 -1.5974357e-11 0)
(0.003606942 -2.8404294e-11 0)
(0.0036069421 -4.4251983e-11 0)
(0.0036069421 -6.3883055e-11 0)
(0.0036069421 -8.7547424e-11 0)
(0.0036069422 -1.1531653e-10 0)
(0.0036069423 -1.4702228e-10 0)
(0.0036069424 -1.8219696e-10 0)
(0.0036069425 -2.2003778e-10 0)
(0.0036069426 -2.5940933e-10 0)
(0.0036069428 -2.9892837e-10 0)
(0.003606943 -3.3714821e-10 0)
(0.0036069432 -3.7288452e-10 0)
(0.0036069435 -4.0581082e-10 0)
(0.0036069437 -4.3742592e-10 0)
(0.003606944 -4.7165843e-10 0)
(0.0036069443 -5.1481198e-10 0)
(0.0036069447 -5.7872327e-10 0)
(0.0036069451 -6.8662333e-10 0)
(0.0042086177 0.00047689151 0)
(0.0044238383 0.0010045331 0)
(0.0046078961 0.0011827642 0)
(0.0047109621 0.0011441516 0)
(0.0047362351 0.00099982903 0)
(0.0047109605 0.00082166834 0)
(0.0046607049 0.00064834767 0)
(0.0046029266 0.00049690331 0)
(0.0045476683 0.00037235029 0)
(0.004499695 0.00027381371 0)
(0.0044605121 0.00019796917 0)
(0.0044298559 0.00014081562 0)
(0.004406649 9.8507363e-05 0)
(0.0043895532 6.7689655e-05 0)
(0.0043772592 4.5588602e-05 0)
(0.0043686175 2.9987825e-05 0)
(0.0043626815 1.9159462e-05 0)
(0.004358704 1.1782491e-05 0)
(0.0043561136 6.8637156e-06 0)
(0.004354485 3.667799e-06 0)
(0.0043535081 1.6583459e-06 0)
(0.0043529615 4.4988335e-07 0)
(0.0043526907 -2.3032224e-07 0)
(0.0043525895 -5.7203218e-07 0)
(0.0043525873 -7.0484264e-07 0)
(0.0043526378 -7.1538305e-07 0)
(0.004352712 -6.6009067e-07 0)
(0.0043527926 -5.7455826e-07 0)
(0.0043528697 -4.8027143e-07 0)
(0.0043529384 -3.8938846e-07 0)
(0.0043529968 -3.0807436e-07 0)
(0.0043530449 -2.3878363e-07 0)
(0.0043530835 -1.8178974e-07 0)
(0.0043531137 -1.3618437e-07 0)
(0.0043531371 -1.0050931e-07 0)
(0.0043531548 -7.3139378e-08 0)
(0.0043531681 -5.2500267e-08 0)
(0.0043531779 -3.7179891e-08 0)
(0.0043531851 -2.5973706e-08 0)
(0.0043531903 -1.7890962e-08 0)
(0.0043531941 -1.2139652e-08 0)
(0.0043531968 -8.1014212e-09 0)
(0.0043531987 -5.3032672e-09 0)
(0.0043532 -3.3899703e-09 0)
(0.004353201 -2.0992739e-09 0)
(0.0043532016 -1.2406697e-09 0)
(0.0043532021 -6.7792317e-10 0)
(0.0043532024 -3.1510464e-10 0)
(0.0043532025 -8.5689601e-11 0)
(0.0043532027 5.5757727e-11 0)
(0.0043532027 1.3981029e-10 0)
(0.0043532027 1.8674429e-10 0)
(0.0043532027 2.0983228e-10 0)
(0.0043532027 2.1766671e-10 0)
(0.0043532027 2.1577371e-10 0)
(0.0043532026 2.0770427e-10 0)
(0.0043532026 1.9576183e-10 0)
(0.0043532025 1.814693e-10 0)
(0.0043532025 1.6586699e-10 0)
(0.0043532025 1.4969101e-10 0)
(0.0043532024 1.3348272e-10 0)
(0.0043532024 1.1764802e-10 0)
(0.0043532023 1.0249458e-10 0)
(0.0043532023 8.824937e-11 0)
(0.0043532023 7.5073534e-11 0)
(0.0043532023 6.3068739e-11 0)
(0.0043532022 5.2287637e-11 0)
(0.0043532022 4.2738536e-11 0)
(0.0043532022 3.4395849e-11 0)
(0.0043532022 2.7204452e-11 0)
(0.0043532022 2.1090038e-11 0)
(0.0043532022 1.5962383e-11 0)
(0.0043532022 1.1724676e-11 0)
(0.0043532022 8.274835e-12 0)
(0.0043532022 5.5134194e-12 0)
(0.0043532022 3.3427424e-12 0)
(0.0043532022 1.6733285e-12 0)
(0.0043532022 4.2109758e-13 0)
(0.0043532022 -4.8726346e-13 0)
(0.0043532022 -1.1186392e-12 0)
(0.0043532022 -1.5287084e-12 0)
(0.0043532022 -1.7673381e-12 0)
(0.0043532022 -1.8740301e-12 0)
(0.0043532022 -1.8839098e-12 0)
(0.0043532022 -1.8231366e-12 0)
(0.0043532022 -1.7151802e-12 0)
(0.0043532022 -1.5760777e-12 0)
(0.0043532022 -1.4207206e-12 0)
(0.0043532022 -1.2579425e-12 0)
(0.0043532022 -1.0967208e-12 0)
(0.0043532022 -9.411133e-13 0)
(0.0043532022 -7.9620497e-13 0)
(0.0043532022 -6.6307366e-13 0)
(0.0043532022 -5.4440226e-13 0)
(0.0043532022 -4.395502e-13 0)
(0.0043532022 -3.4977699e-13 0)
(0.0043532022 -2.7353994e-13 0)
(0.0043532022 -2.1130012e-13 0)
(0.0043532022 -1.6112977e-13 0)
(0.0043532022 -1.2305428e-13 0)
(0.0043532022 -9.5062896e-14 0)
(0.0043532022 -7.6957693e-14 0)
(0.0043532022 -6.6827988e-14 0)
(0.0043532022 -6.435419e-14 0)
(0.0043532022 -6.7807951e-14 0)
(0.0043532022 -7.6831165e-14 0)
(0.0043532022 -8.9905364e-14 0)
(0.0043532022 -1.0669237e-13 0)
(0.0043532022 -1.2590376e-13 0)
(0.0043532022 -1.472177e-13 0)
(0.0043532022 -1.695977e-13 0)
(0.0043532022 -1.9278628e-13 0)
(0.0043532022 -2.1594996e-13 0)
(0.0043532022 -2.3890412e-13 0)
(0.0043532022 -2.610284e-13 0)
(0.0043532022 -2.8221896e-13 0)
(0.0043532022 -3.0204699e-13 0)
(0.0043532022 -3.205057e-13 0)
(0.0043532022 -3.3732389e-13 0)
(0.0043532022 -3.5260424e-13 0)
(0.0043532022 -3.6619992e-13 0)