/*--------------------------------*- C++ -*----------------------------------*\
| =========                 |                                                 |
| \\      /  F ield         | OpenFOAM: The Open Source CFD Toolbox           |
|  \\    /   O peration     | Version:  2406                                  |
|   \\  /    A nd           | Website:  www.openfoam.com                      |
|    \\/     M anipulation  |                                                 |
\*---------------------------------------------------------------------------*/
FoamFile
{
    version     2.0;
    format      ascii;
    arch        "LSB;label=32;scalar=64";
    class       surfaceScalarField;
    location    "2500";
    object      phi;
}
// * * * * * * * * * * * * * * * * * * * * * * * * * * * * * * * * * * * * * //

dimensions      [0 3 -1 0 0 0 0];

oriented        oriented;

internalField   nonuniform List<scalar> 
19351
(
-6.9403225e-13
6.9403284e-13
-1.7135447e-12
1.0195133e-12
-2.5779092e-12
8.6436522e-13
-3.1422281e-12
5.6431941e-13
-3.4024992e-12
2.6027141e-13
-3.4005458e-12
-1.9534173e-15
-3.1957856e-12
-2.0476003e-13
-2.8509854e-12
-3.4480013e-13
-2.4230426e-12
-4.2794245e-13
-1.9584001e-12
-4.6464206e-13
-1.4919751e-12
-4.6642437e-13
-1.0479955e-12
-4.4397899e-13
-6.4146223e-13
-4.0653256e-13
-2.8035908e-13
-3.6110253e-13
3.2245684e-14
-3.1260422e-13
2.9683535e-13
-2.6458925e-13
5.161559e-13
-2.193202e-13
6.9424458e-13
-1.7808843e-13
8.357482e-13
-1.4150341e-13
9.4547787e-13
-1.0972952e-13
1.0281254e-12
-8.2647347e-14
1.0880903e-12
-5.9964788e-14
1.1293836e-12
-4.1293207e-14
1.1555831e-12
-2.6199463e-14
1.1698171e-12
-1.4233958e-14
1.1747678e-12
-4.9505968e-15
1.1726907e-12
2.0771081e-15
1.1654486e-12
7.2421261e-15
1.154555e-12
1.0893599e-14
1.141218e-12
1.3337033e-14
1.1263817e-12
1.4836312e-14
1.1107649e-12
1.5616803e-14
1.0948964e-12
1.586848e-14
1.0791476e-12
1.5748895e-14
1.0637615e-12
1.5386071e-14
1.0488803e-12
1.488124e-14
1.0345688e-12
1.431145e-14
1.0208368e-12
1.373203e-14
1.0076579e-12
1.3178953e-14
9.9498673e-13
1.2671132e-14
9.8277403e-13
1.2212698e-14
9.7097872e-13
1.1795304e-14
9.5957823e-13
1.1400493e-14
9.4857609e-13
1.1002141e-14
9.3800712e-13
1.0568964e-14
9.2794005e-13
1.0067072e-14
9.1847758e-13
9.4624787e-15
9.0975404e-13
8.7235429e-15
9.0193086e-13
7.8231905e-15
8.9519e-13
6.7408637e-15
8.8972593e-13
5.4640849e-15
8.8573642e-13
3.9895042e-15
8.8341301e-13
2.3234145e-15
8.8293133e-13
4.8166989e-16
8.8444162e-13
-1.5102819e-15
8.8806021e-13
-3.6185814e-15
8.9386331e-13
-5.8030849e-15
9.0188234e-13
-8.0190186e-15
9.1210074e-13
-1.0218395e-14
9.2445266e-13
-1.2351916e-14
9.3882382e-13
-1.4371154e-14
9.5505458e-13
-1.623076e-14
9.7294513e-13
-1.7890547e-14
9.9226236e-13
-1.931723e-14
1.0127481e-12
-2.0485749e-14
1.0341282e-12
-2.1380066e-14
1.0561216e-12
-2.1993423e-14
1.0784497e-12
-2.2328114e-14
1.1008445e-12
-2.2394785e-14
1.1230559e-12
-2.2211412e-14
1.144858e-12
-2.1802007e-14
1.1660532e-12
-2.1195207e-14
1.186476e-12
-2.0422818e-14
1.2059944e-12
-1.9518403e-14
1.2245104e-12
-1.8516005e-14
1.2419594e-12
-1.7448998e-14
1.2583086e-12
-1.6349148e-14
1.2735545e-12
-1.524584e-14
1.28772e-12
-1.4165491e-14
1.3008511e-12
-1.3131127e-14
1.3130132e-12
-1.2162093e-14
1.3242871e-12
-1.1273886e-14
1.3347653e-12
-1.0478087e-14
1.3445476e-12
-9.7823625e-15
1.3537382e-12
-9.1905617e-15
1.3624411e-12
-8.7028513e-15
1.3707571e-12
-8.3159378e-15
1.3787804e-12
-8.0233415e-15
1.3865962e-12
-7.8157438e-15
1.3942777e-12
-7.6814031e-15
1.4018843e-12
-7.6066312e-15
1.4094607e-12
-7.5763363e-15
1.4170353e-12
-7.5746001e-15
1.4246207e-12
-7.585299e-15
1.4322134e-12
-7.5927089e-15
1.4397956e-12
-7.5821179e-15
1.447336e-12
-7.5403607e-15
1.4547923e-12
-7.4563153e-15
1.4621136e-12
-7.3212725e-15
1.4692429e-12
-7.1292294e-15
1.47612e-12
-6.8770253e-15
1.4826844e-12
-6.5643923e-15
1.4888782e-12
-6.1938434e-15
1.4946488e-12
-5.7704906e-15
1.4999505e-12
-5.3017242e-15
1.5047474e-12
-4.7968563e-15
1.5090141e-12
-4.2666618e-15
1.5127371e-12
-3.72293e-15
1.515915e-12
-3.177957e-15
1.5185592e-12
-2.6440868e-15
1.5206924e-12
-2.1332412e-15
1.522349e-12
-1.6565165e-15
1.5235728e-12
-1.2238154e-15
1.5244164e-12
-8.4354842e-16
1.5249388e-12
-5.2240423e-16
1.525204e-12
-2.651903e-16
1.5252788e-12
-7.4742929e-17
1.5252308e-12
4.8078526e-17
1.5251264e-12
1.043569e-16
1.5250295e-12
9.6981487e-17
1.524999e-12
3.0511933e-17
1.5250881e-12
-8.9060845e-17
1.5253427e-12
-2.5452624e-16
1.5258004e-12
-4.5774684e-16
1.5264904e-12
-6.8991325e-16
1.5274323e-12
-9.4184602e-16
1.5286365e-12
-1.2042522e-15
1.5301046e-12
-1.4680011e-15
1.5318289e-12
-1.7243484e-15
1.5337941e-12
-1.9651555e-15
1.5359772e-12
-2.1830615e-15
1.5383489e-12
-2.3716227e-15
1.5408743e-12
-2.5254293e-15
1.5435145e-12
-2.64016e-15
1.5462272e-12
-2.7126397e-15
1.5489681e-12
-2.7408296e-15
1.5516919e-12
-2.7238157e-15
1.5543537e-12
-2.6617667e-15
1.5569096e-12
-2.5558583e-15
1.5593179e-12
-2.4082207e-15
1.5615398e-12
-2.2218187e-15
1.5635402e-12
-2.0003889e-15
1.5652885e-12
-1.7483049e-15
1.5667591e-12
-1.4705009e-15
1.5679314e-12
-1.1723403e-15
1.568791e-12
-8.5953381e-16
1.5693291e-12
-5.3800487e-16
1.5695429e-12
-2.1380098e-16
1.5694359e-12
1.0706334e-16
1.5690172e-12
4.1868724e-16
1.5683019e-12
7.1543504e-16
1.5673099e-12
9.9199325e-16
1.5660664e-12
1.2435376e-15
1.5646007e-12
1.4657418e-15
1.5629458e-12
1.6549468e-15
1.5611377e-12
1.8081341e-15
1.5592146e-12
1.923074e-15
1.5572164e-12
1.9982768e-15
1.5551833e-12
2.0331001e-15
1.5531556e-12
2.0276887e-15
1.5511726e-12
1.9830226e-15
1.5492717e-12
1.900849e-15
1.547488e-12
1.7836717e-15
1.5458534e-12
1.634664e-15
1.5443958e-12
1.4576148e-15
1.543139e-12
1.2568094e-15
1.5421021e-12
1.0369512e-15
1.5412991e-12
8.0301575e-16
1.5407389e-12
5.6016182e-16
1.5404254e-12
3.1356925e-16
1.5403571e-12
6.8360512e-17
1.5405277e-12
-1.705738e-16
1.5409263e-12
-3.98599e-16
1.5415379e-12
-6.1152147e-16
1.5423435e-12
-8.0557497e-16
1.5433211e-12
-9.7757793e-16
1.544446e-12
-1.1248993e-15
1.5456915e-12
-1.2455635e-15
1.5470297e-12
-1.3382021e-15
1.5484318e-12
-1.4021092e-15
1.549869e-12
-1.4371732e-15
1.5513129e-12
-1.4439055e-15
1.5527363e-12
-1.4233401e-15
1.5541133e-12
-1.3770467e-15
1.5554203e-12
-1.3070149e-15
1.5566359e-12
-1.2156505e-15
1.5577416e-12
-1.1056643e-15
1.5587216e-12
-9.800505e-16
1.5595636e-12
-8.4198983e-16
1.5602584e-12
-6.9480567e-16
1.5608003e-12
-5.4191211e-16
1.561187e-12
-3.8674942e-16
1.5614198e-12
-2.3277222e-16
1.5615031e-12
-8.3347494e-17
1.5614446e-12
5.84134e-17
1.5612544e-12
1.9021343e-16
1.5609422e-12
3.1214722e-16
1.5605126e-12
4.2958769e-16
1.5599489e-12
5.63685e-16
7.2616259e-16
-1.5070374e-12
2.2010712e-12
-3.4250476e-12
2.937525e-12
-4.8273684e-12
2.2666871e-12
-5.567594e-12
1.3045457e-12
-5.7152143e-12
4.0789196e-13
-5.39751e-12
-3.1965758e-13
-4.7515085e-12
-8.507615e-13
-3.9014211e-12
-1.1948871e-12
-2.947559e-12
-1.381804e-12
-1.9652457e-12
-1.4469545e-12
-1.0080239e-12
-1.4236451e-12
-1.1156139e-13
-1.3404403e-12
7.022079e-13
-1.2203006e-12
1.4219778e-12
-1.0808714e-12
2.0443991e-12
-9.3502453e-13
2.5712013e-12
-7.9139082e-13
3.007478e-12
-6.5559637e-13
3.3604246e-12
-5.3103456e-13
3.6383901e-12
-4.1946862e-13
3.8501848e-12
-3.2152394e-13
4.0046018e-12
-2.370642e-13
4.1100975e-12
-1.654603e-13
4.1745801e-12
-1.0577562e-13
4.2052807e-12
-5.6900001e-14
4.2086755e-12
-1.7628644e-14
4.190447e-12
1.327803e-14
4.15549e-12
3.7034123e-14
4.1079565e-12
5.4775722e-14
4.0513162e-12
6.7533985e-14
3.9884238e-12
7.6229424e-14
3.9215873e-12
8.1672783e-14
3.8526358e-12
8.456834e-14
3.7829855e-12
8.5518851e-14
3.7137028e-12
8.5031555e-14
3.6455641e-12
8.3524835e-14
3.5791102e-12
8.1335157e-14
3.5146976e-12
7.8724105e-14
3.4525442e-12
7.5885388e-14
3.3927714e-12
7.2951805e-14
3.3354403e-12
7.0002224e-14
3.2805843e-12
6.7068646e-14
3.2282362e-12
6.4143459e-14
3.1784497e-12
6.1186949e-14
3.1313168e-12
5.8135077e-14
3.0869782e-12
5.490749e-14
3.0456297e-12
5.1415607e-14
3.0075216e-12
4.7570619e-14
2.972954e-12
4.3291101e-14
2.9422673e-12
3.8509967e-14
2.9158277e-12
3.3180454e-14
2.894011e-12
2.7280815e-14
2.877183e-12
2.0817467e-14
2.86568e-12
1.382636e-14
2.8597894e-12
6.3722828e-15
2.8597322e-12
-1.4530738e-15
2.8656467e-12
-9.5329845e-15
2.8775746e-12
-1.7731038e-14
2.8954543e-12
-2.589867e-14
2.9191158e-12
-3.3879872e-14
2.9482812e-12
-4.1517272e-14
2.9825689e-12
-4.8658902e-14
3.0215031e-12
-5.5164997e-14
3.0645269e-12
-6.091426e-14
3.1110187e-12
-6.5809066e-14
3.1603122e-12
-6.9779249e-14
3.2117164e-12
-7.2784277e-14
3.2645368e-12
-7.4813743e-14
3.3180949e-12
-7.5886296e-14
3.3717474e-12
-7.6047194e-14
3.4249008e-12
-7.5364792e-14
3.4770251e-12
-7.3926277e-14
3.5276629e-12
-7.1833007e-14
3.5764358e-12
-6.9195752e-14
3.6230476e-12
-6.6130109e-14
3.6672839e-12
-6.2752298e-14
3.7090103e-12
-5.9175459e-14
3.7481678e-12
-5.5506546e-14
3.7847658e-12
-5.1843821e-14
3.8188753e-12
-4.8274933e-14
3.8506197e-12
-4.4875536e-14
3.880166e-12
-4.1708375e-14
3.907715e-12
-3.8822785e-14
3.9334914e-12
-3.6254526e-14
3.957735e-12
-3.4025919e-14
3.9806907e-12
-3.2146241e-14
4.0026003e-12
-3.0612356e-14
4.023694e-12
-2.9409578e-14
4.0441834e-12
-2.8512759e-14
4.0642554e-12
-2.7887594e-14
4.0840662e-12
-2.7492154e-14
4.1037382e-12
-2.72786e-14
4.123357e-12
-2.7195079e-14
4.1429702e-12
-2.7187729e-14
4.1625877e-12
-2.7202745e-14
4.1821835e-12
-2.7188422e-14
4.2016985e-12
-2.7097104e-14
4.2210452e-12
-2.6886939e-14
4.2401123e-12
-2.6523381e-14
4.2587714e-12
-2.5980349e-14
4.2768833e-12
-2.5241023e-14
4.2943045e-12
-2.4298218e-14
4.3108945e-12
-2.3154355e-14
4.3265218e-12
-2.1821026e-14
4.3410696e-12
-2.031821e-14
4.354441e-12
-1.8673166e-14
4.3665633e-12
-1.691909e-14
4.3773903e-12
-1.5093603e-14
4.3869046e-12
-1.3237131e-14
4.3951179e-12
-1.1391266e-14
4.402071e-12
-9.5971662e-15
4.4078319e-12
-7.8940625e-15
4.4124933e-12
-6.3179096e-15
4.4161698e-12
-4.9002313e-15
4.4189935e-12
-3.6671913e-15
4.42111e-12
-2.6388958e-15
4.4226739e-12
-1.8289535e-15
4.4238435e-12
-1.2442737e-15
4.4247767e-12
-8.8510963e-16
4.4256264e-12
-7.4531634e-16
4.4265363e-12
-8.1280969e-16
4.427637e-12
-1.070187e-15
4.4290435e-12
-1.4954879e-15
4.4308521e-12
-2.0630455e-15
4.4331388e-12
-2.7444137e-15
4.4359583e-12
-3.5093123e-15
4.439343e-12
-4.326579e-15
4.4433039e-12
-5.1650784e-15
4.4478305e-12
-5.9945585e-15
4.4528926e-12
-6.786415e-15
4.4584419e-12
-7.5143624e-15
4.4644138e-12
-8.1549864e-15
4.4707304e-12
-8.6881797e-15
4.4773025e-12
-9.0974562e-15
4.4840326e-12
-9.3701496e-15
4.4908175e-12
-9.4974973e-15
4.4975514e-12
-9.4746274e-15
4.5041281e-12
-9.3004514e-15
4.5104439e-12
-8.9774848e-15
4.5163997e-12
-8.5116073e-15
4.5219033e-12
-7.9117732e-15
4.5268712e-12
-7.189686e-15
4.5312304e-12
-6.3594474e-15
4.5349193e-12
-5.437184e-15
4.5378895e-12
-4.4406718e-15
4.5401062e-12
-3.3889499e-15
4.5415487e-12
-2.3019404e-15
4.5422108e-12
-1.2000645e-15
4.5421009e-12
-1.0383646e-16
4.5412415e-12
9.6655199e-16
4.5396687e-12
1.9916268e-15
4.5374312e-12
2.9530189e-15
4.5345894e-12
3.8338155e-15
4.5312141e-12
4.618875e-15
4.5273849e-12
5.2951027e-15
4.5231882e-12
5.8516936e-15
4.518716e-12
6.2803182e-15
4.5140638e-12
6.5752767e-15
4.5093285e-12
6.7335847e-15
4.5046066e-12
6.7550243e-15
4.4999922e-12
6.6421202e-15
4.4955751e-12
6.4000742e-15
4.4914394e-12
6.0366284e-15
4.4876612e-12
5.5618821e-15
4.4843078e-12
4.9880457e-15
4.4814363e-12
4.3291476e-15
4.4790924e-12
3.6006928e-15
4.4773101e-12
2.8192853e-15
4.476111e-12
2.0022284e-15
4.4755041e-12
1.1671159e-15
4.4754863e-12
3.3140908e-16
4.4760427e-12
-4.8796566e-16
4.4771472e-12
-1.2749759e-15
4.4787634e-12
-2.0148175e-15
4.4808462e-12
-2.6942133e-15
4.4833423e-12
-3.3016469e-15
4.4861923e-12
-3.8275614e-15
4.4893319e-12
-4.2644827e-15
4.4926934e-12
-4.6071035e-15
4.4962075e-12
-4.852294e-15
4.4998045e-12
-4.99908e-15
4.5034158e-12
-5.0485571e-15
4.5069757e-12
-5.0037807e-15
4.510422e-12
-4.8696042e-15
4.5136974e-12
-4.652505e-15
4.5167507e-12
-4.3603741e-15
4.5195374e-12
-4.0023152e-15
4.5220201e-12
-3.5884151e-15
4.5241696e-12
-3.1295357e-15
4.5259646e-12
-2.6370898e-15
4.5273927e-12
-2.1228536e-15
4.5284495e-12
-1.5987892e-15
4.5291397e-12
-1.0769154e-15
4.5294761e-12
-5.6921433e-16
4.5294802e-12
-8.7531353e-17
4.5291819e-12
3.5667479e-16
4.5286189e-12
7.5312794e-16
4.5278363e-12
1.0946525e-15
4.5268849e-12
1.3809392e-15
4.5258187e-12
1.6299128e-15
1.8325007e-15
-1.7915419e-12
3.9926141e-12
-3.5340234e-12
4.680008e-12
-4.3505242e-12
3.083189e-12
-4.3890361e-12
1.3430583e-12
-3.8717568e-12
-1.093871e-13
-2.9838592e-12
-1.2075551e-12
-1.8827367e-12
-1.9518841e-12
-6.8821337e-13
-2.3894102e-12
5.1699167e-13
-2.5870086e-12
1.6779558e-12
-2.6079178e-12
2.7601753e-12
-2.5058636e-12
3.7435577e-12
-2.3238215e-12
4.6177856e-12
-2.0945276e-12
5.3792213e-12
-1.842306e-12
6.0288083e-12
-1.5846108e-12
6.5708465e-12
-1.3334284e-12
7.01189e-12
-1.0966394e-12
7.3599329e-12
-8.7907713e-13
7.623808e-12
-6.8334344e-13
7.8127244e-12
-5.104402e-13
7.9359219e-12
-3.6026147e-13
8.0024093e-12
-2.3194761e-13
8.0207601e-12
-1.2412631e-13
7.9989644e-12
-3.5104129e-14
7.9442991e-12
3.7036739e-14
7.8632625e-12
9.4314699e-14
7.7615802e-12
1.3871647e-13
7.6442352e-12
1.7212078e-13
7.5155003e-12
1.9626894e-13
7.3789836e-12
2.127461e-13
7.2376851e-12
2.2297133e-13
7.0940586e-12
2.2819488e-13
6.9500769e-12
2.2950048e-13
6.8072973e-12
2.2781124e-13
6.6669242e-12
2.2389796e-13
6.5298704e-12
2.1838892e-13
6.3968139e-12
2.1178069e-13
6.2682499e-12
2.0444932e-13
6.1445397e-12
1.9666206e-13
6.0259527e-12
1.8858921e-13
5.9127048e-12
1.8031658e-13
5.8049899e-12
1.7185829e-13
5.7030066e-12
1.6317029e-13
5.6069772e-12
1.5416446e-13
5.5171616e-12
1.4472313e-13
5.4338633e-12
1.3471389e-13
5.3574297e-12
1.240042e-13
5.2882456e-12
1.1247523e-13
5.2267211e-12
1.0003454e-13
5.1732747e-12
8.6626774e-14
5.1283135e-12
7.2242085e-14
5.0922094e-12
5.6921522e-14
5.0652766e-12
4.0759208e-14
5.047748e-12
2.3900849e-14
5.0397567e-12
6.5382196e-15
5.0413197e-12
-1.1095921e-14
5.0523224e-12
-2.8733691e-14
5.0725095e-12
-4.6085784e-14
5.1014837e-12
-6.2854076e-14
5.138709e-12
-7.8742588e-14
5.18352e-12
-9.3469919e-14
5.2351367e-12
-1.0678168e-13
5.2926842e-12
-1.1846172e-13
5.3552165e-12
-1.2834137e-13
5.4217431e-12
-1.3630583e-13
5.4912564e-12
-1.4229762e-13
5.5627595e-12
-1.4631683e-13
5.6352918e-12
-1.4841856e-13
5.7079524e-12
-1.4870776e-13
5.7799199e-12
-1.4733225e-13
5.8504679e-12
-1.444743e-13
5.9189766e-12
-1.4034165e-13
5.9849391e-12
-1.3515831e-13
6.0479649e-12
-1.2915583e-13
6.1077779e-12
-1.2256529e-13
6.1642126e-12
-1.156102e-13
6.2172068e-12
-1.0850066e-13
6.2667916e-12
-1.0142861e-13
6.3130809e-12
-9.4564168e-14
6.3562584e-12
-8.8053084e-14
6.3965651e-12
-8.2015047e-14
6.4342852e-12
-7.6542816e-14
6.4697327e-12
-7.170203e-14
6.5032385e-12
-6.7531605e-14
6.5351369e-12
-6.4044661e-14
6.5657545e-12
-6.1229934e-14
6.5953986e-12
-5.9053642e-14
6.6243477e-12
-5.7461799e-14
6.6528432e-12
-5.6382968e-14
6.6810825e-12
-5.5731404e-14
6.7092145e-12
-5.541059e-14
6.7373365e-12
-5.5317033e-14
6.7654932e-12
-5.5344281e-14
6.7936775e-12
-5.5386995e-14
6.821834e-12
-5.5344945e-14
6.8498637e-12
-5.5126757e-14
6.8776301e-12
-5.4653277e-14
6.9049672e-12
-5.386036e-14
6.9316879e-12
-5.2701021e-14
6.9575937e-12
-5.1146788e-14
6.9824838e-12
-4.9188291e-14
7.0061645e-12
-4.6834994e-14
7.0284577e-12
-4.4114204e-14
7.0492089e-12
-4.1069331e-14
7.0682934e-12
-3.7757612e-14
7.0856217e-12
-3.4247327e-14
7.1011429e-12
-3.061475e-14
7.1148467e-12
-2.6940889e-14
7.1267637e-12
-2.3308243e-14
7.1369642e-12
-1.9797631e-14
7.1455555e-12
-1.6485286e-14
7.1526778e-12
-1.3440242e-14
7.1584998e-12
-1.0722148e-14
7.1632122e-12
-8.3795187e-15
7.1670218e-12
-6.4484958e-15
7.170145e-12
-4.9520914e-15
7.1728008e-12
-3.899951e-15
7.1752043e-12
-3.2885559e-15
7.1775609e-12
-3.1018978e-15
7.1800606e-12
-3.3124854e-15
7.1828732e-12
-3.8827158e-15
7.1861442e-12
-4.7664419e-15
7.189992e-12
-5.9107642e-15
7.1945055e-12
-7.2578805e-15
7.1997432e-12
-8.7470148e-15
7.205733e-12
-1.0316274e-14
7.2124724e-12
-1.1904458e-14
7.2199306e-12
-1.3452688e-14
7.2280501e-12
-1.4905897e-14
7.2367498e-12
-1.621407e-14
7.2459282e-12
-1.7333281e-14
7.2554665e-12
-1.8226467e-14
7.2652331e-12
-1.8863985e-14
7.2750869e-12
-1.9223911e-14
7.2848816e-12
-1.9292152e-14
7.2944694e-12
-1.9062333e-14
7.3037046e-12
-1.853554e-14
7.312447e-12
-1.7719892e-14
7.3205655e-12
-1.6630034e-14
7.3279403e-12
-1.5286495e-14
7.3344657e-12
-1.371503e-14
7.3400522e-12
-1.1945854e-14
7.344628e-12
-1.0012911e-14
7.3481404e-12
-7.9530584e-15
7.3505568e-12
-5.80531e-15
7.351865e-12
-3.610027e-15
7.3520732e-12
-1.4081712e-15
7.3512099e-12
7.5952203e-16
7.3493232e-12
2.8533236e-15
7.3464795e-12
4.835398e-15
7.3427621e-12
6.6705091e-15
7.3382692e-12
8.326729e-15
7.3331122e-12
9.77598e-15
7.3274127e-12
1.0994602e-14
7.3213008e-12
1.1963722e-14
7.3149115e-12
1.2669639e-14
7.3083828e-12
1.3104e-14
7.3018524e-12
1.3263977e-14
7.2954552e-12
1.3152234e-14
7.2893204e-12
1.277687e-14
7.2835693e-12
1.2151166e-14
7.2783127e-12
1.1293294e-14
7.2736487e-12
1.0225852e-14
7.2696614e-12
8.9753513e-15
7.266419e-12
7.571557e-15
7.263973e-12
6.0468044e-15
7.2623571e-12
4.4351926e-15
7.2615876e-12
2.7717998e-15
7.2616629e-12
1.0918356e-15
7.2625645e-12
-5.7015385e-16
7.2642577e-12
-2.1810866e-15
7.2666928e-12
-3.7100166e-15
7.2698069e-12
-5.1288244e-15
7.2735254e-12
-6.412694e-15
7.2777643e-12
-7.5405996e-15
7.2824324e-12
-8.4955792e-15
7.2874329e-12
-9.2649903e-15
7.2926664e-12
-9.840565e-15
7.2980325e-12
-1.0218438e-14
7.3034324e-12
-1.0398997e-14
7.3087706e-12
-1.0386725e-14
7.3139567e-12
-1.0189883e-14
7.3189073e-12
-9.82021e-15
7.3235472e-12
-9.292493e-15
7.327811e-12
-8.6241837e-15
7.3316436e-12
-7.8349233e-15
7.3350013e-12
-6.9461246e-15
7.3378522e-12
-5.980504e-15
7.3401768e-12
-4.9616772e-15
7.3419677e-12
-3.9137614e-15
7.3432299e-12
-2.8610483e-15
7.3439808e-12
-1.827757e-15
7.3442494e-12
-8.3786646e-16
7.3440769e-12
8.4944859e-17
7.3435161e-12
9.1742304e-16
7.3426319e-12
1.6372653e-15
7.3415019e-12
2.224587e-15
7.3402188e-12
2.6639274e-15
7.3388941e-12
2.9546653e-15
3.0797595e-15
-1.5160806e-12
5.5086956e-12
-1.7792642e-12
4.9431931e-12
-8.3594181e-13
2.1398676e-12
5.6400704e-13
-5.6890059e-14
2.095746e-12
-1.641126e-12
3.6210247e-12
-2.7328339e-12
5.0551588e-12
-3.3860182e-12
6.3591048e-12
-3.6933561e-12
7.5226549e-12
-3.7505583e-12
8.5480537e-12
-3.633316e-12
9.4416106e-12
-3.3994197e-12
1.0210822e-11
-3.0930316e-12
1.0863462e-11
-2.7471667e-12
1.1407126e-11
-2.3859693e-12
1.1849229e-11
-2.0267132e-12
1.2197178e-11
-1.6813764e-12
1.2458454e-11
-1.3579152e-12
1.2640633e-11
-1.0612563e-12
1.2751365e-11
-7.9407535e-13
1.2798309e-11
-5.5738362e-13
1.2789052e-11
-3.5100489e-13
1.2731015e-11
-1.739103e-13
1.2631329e-11
-2.4440647e-14
1.2496672e-11
9.9553366e-14
1.2333172e-11
2.0053715e-13
1.2146446e-11
2.8104037e-13
1.1941593e-11
3.435697e-13
1.1723163e-11
3.9055015e-13
1.1495162e-11
4.2427094e-13
1.126106e-11
4.46848e-13
1.102383e-11
4.6020112e-13
1.0785983e-11
4.66042e-13
1.0549612e-11
4.6587077e-13
1.0316445e-11
4.6097886e-13
1.0087886e-11
4.524565e-13
9.8650721e-12
4.4120322e-13
9.6489122e-12
4.2794053e-13
9.4401357e-12
4.1322585e-13
9.2393304e-12
3.9746736e-13
9.0469799e-12
3.8093971e-13
8.8634961e-12
3.6380045e-13
8.6892469e-12
3.4610746e-13
8.5245797e-12
3.2783748e-13
8.3698385e-12
3.0890559e-13
8.225376e-12
2.8918562e-13
8.091559e-12
2.6853099e-13
7.9687678e-12
2.4679541e-13
7.8573904e-12
2.2385264e-13
7.7578104e-12
1.9961449e-13
7.6703912e-12
1.7404604e-13
7.5954559e-12
1.471774e-13
7.5332661e-12
1.1911123e-13
7.4839999e-12
9.0025482e-14
7.4477298e-12
6.0170904e-14
7.4244053e-12
2.986273e-14
7.4138409e-12
-5.315163e-16
7.4157057e-12
-3.0598473e-14
7.4295122e-12
-5.9892235e-14
7.454617e-12
-8.7958887e-14
7.4902292e-12
-1.1435471e-13
7.535423e-12
-1.3866374e-13
7.5891572e-12
-1.6051592e-13
7.6502989e-12
-1.7960339e-13
7.7176511e-12
-1.9569355e-13
7.7899832e-12
-2.0863792e-13
7.866062e-12
-2.183764e-13
7.9446821e-12
-2.2493692e-13
8.0246942e-12
-2.2843065e-13
8.1050301e-12
-2.2904369e-13
8.1847237e-12
-2.2702586e-13
8.262927e-12
-2.2267759e-13
8.3389214e-12
-2.1633599e-13
8.4121238e-12
-2.0836074e-13
8.4820887e-12
-1.9912068e-13
8.548505e-12
-1.8898156e-13
8.6111902e-12
-1.7829539e-13
8.670081e-12
-1.6739144e-13
8.7252216e-12
-1.5656915e-13
8.77675e-12
-1.4609261e-13
8.8248838e-12
-1.3618679e-13
8.8699038e-12
-1.2703506e-13
8.9121391e-12
-1.1877805e-13
8.9519505e-12
-1.1151345e-13
8.9897158e-12
-1.0529689e-13
9.0258147e-12
-1.001435e-13
9.0606152e-12
-9.6030368e-14
9.0944612e-12
-9.2899584e-14
9.1276615e-12
-9.0662073e-14
9.1604806e-12
-8.9202048e-14
9.1931314e-12
-8.8382082e-14
9.2257696e-12
-8.8048733e-14
9.2584912e-12
-8.8038586e-14
9.2913315e-12
-8.818457e-14
9.3242669e-12
-8.8322336e-14
9.3572185e-12
-8.8296478e-14
9.3900581e-12
-8.7966341e-14
9.4226161e-12
-8.7211173e-14
9.4546901e-12
-8.5934388e-14
9.4860559e-12
-8.4066775e-14
9.5164777e-12
-8.1568486e-14
9.5457192e-12
-7.8429775e-14
9.5735547e-12
-7.4670442e-14
9.5997786e-12
-7.0338091e-14
9.6242146e-12
-6.5505283e-14
9.6467229e-12
-6.0265791e-14
9.6672057e-12
-5.4730145e-14
9.6856117e-12
-4.9020706e-14
9.7019373e-12
-4.326649e-14
9.7162271e-12
-3.7597998e-14
9.7285718e-12
-3.2142215e-14
9.7391045e-12
-2.7018029e-14
9.7479965e-12
-2.2332156e-14
9.7554501e-12
-1.8175762e-14
9.7616925e-12
-1.46218e-14
9.7669672e-12
-1.1723177e-14
9.7715269e-12
-9.5117019e-15
9.7756248e-12
-7.9978605e-15
9.7795076e-12
-7.1713208e-15
9.7834079e-12
-7.0021401e-15
9.787538e-12
-7.4425486e-15
9.7920846e-12
-8.4292324e-15
9.7972042e-12
-9.8859686e-15
9.80302e-12
-1.1726532e-14
9.8096199e-12
-1.3857717e-14
9.8170553e-12
-1.6182409e-14
9.8253416e-12
-1.8602557e-14
9.8344592e-12
-2.1021997e-14
9.8443556e-12
-2.3349011e-14
9.8549483e-12
-2.5498596e-14
9.8661286e-12
-2.7394367e-14
9.8777655e-12
-2.8970086e-14
9.8897098e-12
-3.0170803e-14
9.9017995e-12
-3.0953615e-14
9.9138637e-12
-3.1288054e-14
9.9257278e-12
-3.1156146e-14
9.9372177e-12
-3.0552154e-14
9.9481643e-12
-2.9482073e-14
9.9584073e-12
-2.7962896e-14
9.967799e-12
-2.6021715e-14
9.9762073e-12
-2.3694679e-14
9.9835182e-12
-2.1025866e-14
9.9896384e-12
-1.8066062e-14
9.9944971e-12
-1.4871521e-14
9.9980468e-12
-1.1502678e-14
1.0000264e-11
-8.0228805e-15
1.0001152e-11
-4.4971281e-15
1.0000734e-11
-9.9084242e-16
9.9990626e-12
2.4313069e-15
9.9962092e-12
5.7068316e-15
9.9922678e-12
8.7768022e-15
9.9873514e-12
1.1586973e-14
9.9815894e-12
1.4088816e-14
9.975125e-12
1.6240402e-14
9.9681125e-12
1.8007182e-14
9.9607137e-12
1.9362583e-14
9.9530949e-12
2.0288484e-14
9.9454234e-12
2.0775486e-14
9.9378643e-12
2.0823047e-14
9.9305772e-12
2.0439403e-14
9.9237127e-12
1.964134e-14
9.9174101e-12
1.8453753e-14
9.9117944e-12
1.6909062e-14
9.9069738e-12
1.5046432e-14
9.9030383e-12
1.2910857e-14
9.9000578e-12
1.0552096e-14
9.8980811e-12
8.0234992e-15
9.8971356e-12
5.3807325e-15
9.897227e-12
2.6804705e-15
9.8983398e-12
-2.0942743e-17
9.9004384e-12
-2.6687105e-15
9.9034683e-12
-5.2108767e-15
9.9073577e-12
-7.5994276e-15
9.9120202e-12
-9.7912588e-15
9.9173565e-12
-1.1748949e-14
9.9232573e-12
-1.3441411e-14
9.9296061e-12
-1.4844319e-14
9.9362815e-12
-1.5940398e-14
9.9431604e-12
-1.6719489e-14
9.9501204e-12
-1.7178487e-14
9.9570425e-12
-1.7321076e-14
9.9638132e-12
-1.7157378e-14
9.9703267e-12
-1.6703438e-14
9.9764871e-12
-1.5980653e-14
9.9822097e-12
-1.5015093e-14
9.9874223e-12
-1.3836815e-14
9.9920665e-12
-1.2479116e-14
9.9960982e-12
-1.097781e-14
9.9994881e-12
-9.3705022e-15
1.0002222e-11
-7.6959088e-15
1.0004302e-11
-5.9932353e-15
1.0005742e-11
-4.3016428e-15
1.0006574e-11
-2.6598371e-15
1.0006842e-11
-1.1057934e-15
1.0006604e-11
3.2331587e-16
1.000593e-11
1.5911237e-15
1.0004905e-11
2.6622353e-15
1.0003627e-11
3.5030115e-15
1.0002209e-11
4.0813526e-15
1.0000786e-11
4.3781499e-15
4.3668842e-15
8.9525381e-14
5.4191713e-12
3.5864195e-12
1.4463003e-12
7.243762e-12
-1.517474e-12
1.0206913e-11
-3.0200412e-12
1.2507614e-11
-3.9418262e-12
1.4255648e-11
-4.4808688e-12
1.5571322e-11
-4.7016923e-12
1.656297e-11
-4.6850034e-12
1.731413e-11
-4.5017187e-12
1.7884304e-11
-4.203489e-12
1.8314352e-11
-3.8294669e-12
1.8632e-11
-3.4106792e-12
1.8856207e-11
-2.9713731e-12
1.900025e-11
-2.5300111e-12
1.9073839e-11
-2.1003017e-12
1.9084545e-11
-1.6920826e-12
1.9038703e-11
-1.3120725e-12
1.8941958e-11
-9.6451121e-13
1.8799606e-11
-6.5172278e-13
1.8616764e-11
-3.7454195e-13
1.8398453e-11
-1.3269384e-13
1.8149553e-11
7.4989777e-14
1.7874606e-11
2.5050629e-13
1.7577867e-11
3.9629208e-13
1.7263436e-11
5.1496882e-13
1.6935184e-11
6.0929177e-13
1.6596703e-11
6.820515e-13
1.6251273e-11
7.3598017e-13
1.590186e-11
7.7368372e-13
1.5551114e-11
7.9759405e-13
1.5201378e-11
8.0993658e-13
1.485471e-11
8.1271098e-13
1.4512898e-11
8.0768267e-13
1.4177494e-11
7.9638285e-13
1.3849836e-11
7.8011466e-13
1.3531075e-11
7.5996376e-13
1.3222204e-11
7.3681182e-13
1.2924078e-11
7.1135182e-13
1.263744e-11
6.8410468e-13
1.2362943e-11
6.5543679e-13
1.2101165e-11
6.2557873e-13
1.1852627e-11
5.946451e-13
1.1617809e-11
5.6265587e-13
1.1397156e-11
5.2955908e-13
1.1191086e-11
4.9525497e-13
1.0999996e-11
4.5962082e-13
1.0824256e-11
4.2253591e-13
1.0664203e-11
3.8390556e-13
1.0520134e-11
3.4368304e-13
1.0392292e-11
3.0188825e-13
1.0280848e-11
2.5862196e-13
1.0185884e-11
2.1407485e-13
1.0107379e-11
1.6853042e-13
1.0045189e-11
1.2236152e-13
9.9990314e-12
7.6019865e-14
9.9684819e-12
3.0018032e-14
9.9529672e-12
-1.5083778e-14
9.9517623e-12
-5.8687293e-14
9.9639863e-12
-1.0018289e-13
9.9886156e-12
-1.3898406e-13
1.00245e-11
-1.7454853e-13
1.0070386e-11
-2.0640145e-13
1.0124939e-11
-2.3415628e-13
1.0186777e-11
-2.5753128e-13
1.0254499e-11
-2.7636032e-13
1.032672e-11
-2.9059759e-13
1.0402099e-11
-3.0031605e-13
1.0479369e-11
-3.0570021e-13
1.0557359e-11
-3.0703412e-13
1.0635019e-11
-3.0468572e-13
1.071143e-11
-2.9908876e-13
1.0785818e-11
-2.9072367e-13
1.0857556e-11
-2.8009842e-13
1.0926165e-11
-2.6773036e-13
1.0991314e-11
-2.5412976e-13
1.1052804e-11
-2.3978541e-13
1.1110565e-11
-2.2515277e-13
1.116464e-11
-2.1064438e-13
1.121517e-11
-1.9662272e-13
1.1262379e-11
-1.8339523e-13
1.1306555e-11
-1.712112e-13
1.1348037e-11
-1.6026041e-13
1.1387197e-11
-1.5067312e-13
1.1424422e-11
-1.4252147e-13
1.14601e-11
-1.3582185e-13
1.1494608e-11
-1.305384e-13
1.1528296e-11
-1.265874e-13
1.1561477e-11
-1.238427e-13
1.1594417e-11
-1.221419e-13
1.1627328e-11
-1.2129347e-13
1.1660364e-11
-1.210845e-13
1.1693614e-11
-1.212891e-13
1.1727107e-11
-1.2167701e-13
1.1760807e-11
-1.2202249e-13
1.1794623e-11
-1.2211274e-13
1.1828413e-11
-1.2175591e-13
1.186199e-11
-1.2078817e-13
1.1895135e-11
-1.1907945e-13
1.1927606e-11
-1.1653784e-13
1.195915e-11
-1.1311229e-13
1.1989514e-11
-1.0879345e-13
1.2018456e-11
-1.0361292e-13
1.2045759e-11
-9.7640688e-14
1.2071235e-11
-9.0981103e-14
1.2094737e-11
-8.3767594e-14
1.2116163e-11
-7.6156404e-14
1.2135462e-11
-6.8319638e-14
1.2152634e-11
-6.043802e-14
1.2167729e-11
-5.2693599e-14
1.218085e-11
-4.5262779e-14
1.2192142e-11
-3.8309864e-14
1.2201791e-11
-3.1981425e-14
1.2210017e-11
-2.640158e-14
1.2217063e-11
-2.1668378e-14
1.2223192e-11
-1.7851296e-14
1.222867e-11
-1.4989938e-14
1.2233766e-11
-1.3093833e-14
1.2238738e-11
-1.2143345e-14
1.2243827e-11
-1.2091518e-14
1.2249252e-11
-1.2866786e-14
1.2255199e-11
-1.4376304e-14
1.2261823e-11
-1.650983e-14
1.226924e-11
-1.914388e-14
1.2277529e-11
-2.21461e-14
1.2286726e-11
-2.5379582e-14
1.229683e-11
-2.8707091e-14
1.2307803e-11
-3.1994975e-14
1.2319571e-11
-3.5116735e-14
1.2332029e-11
-3.7956101e-14
1.2345044e-11
-4.0409622e-14
1.2358463e-11
-4.238868e-14
1.2372113e-11
-4.382097e-14
1.2385811e-11
-4.4651424e-14
1.2399365e-11
-4.4842635e-14
1.2412584e-11
-4.4374792e-14
1.2425277e-11
-4.3245227e-14
1.2437263e-11
-4.1467572e-14
1.244837e-11
-3.907067e-14
1.2458446e-11
-3.6097197e-14
1.2467354e-11
-3.260217e-14
1.2474979e-11
-2.8651264e-14
1.2481232e-11
-2.4319097e-14
1.2486048e-11
-1.9687409e-14
1.2489389e-11
-1.4843268e-14
1.2491243e-11
-9.877219e-15
1.2491628e-11
-4.8815461e-15
1.2490585e-11
5.1443521e-17
1.2488186e-11
4.8308811e-15
1.2484523e-11
9.3697256e-15
1.2479713e-11
1.3586539e-14
1.2473893e-11
1.7407095e-14
1.2467216e-11
2.0765725e-14
1.245985e-11
2.3606583e-14
1.2451973e-11
2.5884606e-14
1.2443769e-11
2.7566361e-14
1.2435427e-11
2.863056e-14
1.2427134e-11
2.9068433e-14
1.2419073e-11
2.8883753e-14
1.241142e-11
2.8092702e-14
1.2404338e-11
2.6723394e-14
1.2397977e-11
2.4815218e-14
1.2392468e-11
2.2417879e-14
1.2387924e-11
1.9590264e-14
1.2384436e-11
1.6399041e-14
1.2382071e-11
1.2917135e-14
1.2380872e-11
9.2219985e-15
1.2380859e-11
5.3938192e-15
1.2382026e-11
1.5135851e-15
1.2384344e-11
-2.3386883e-15
1.2387761e-11
-6.0858176e-15
1.2392206e-11
-9.6552398e-15
1.2397587e-11
-1.2980561e-14
1.2403798e-11
-1.6002787e-14
1.2410721e-11
-1.8671446e-14
1.2418225e-11
-2.094536e-14
1.2426174e-11
-2.2793258e-14
1.2434427e-11
-2.4194029e-14
1.2442845e-11
-2.5136812e-14
1.2451287e-11
-2.5620756e-14
1.245962e-11
-2.5654649e-14
1.2467719e-11
-2.5256274e-14
1.2475468e-11
-2.4451684e-14
1.2482761e-11
-2.3274275e-14
1.248951e-11
-2.176384e-14
1.2495639e-11
-1.9965488e-14
1.2501088e-11
-1.7928617e-14
1.2505816e-11
-1.5705808e-14
1.2509797e-11
-1.335181e-14
1.2513024e-11
-1.0922543e-14
1.2515505e-11
-8.4742004e-15
1.2517266e-11
-6.0624751e-15
1.2518348e-11
-3.7419131e-15
1.2518807e-11
-1.565483e-15
1.2518715e-11
4.1563318e-16
1.2518154e-11
2.152048e-15
1.251722e-11
3.5961803e-15
1.251602e-11
4.7026284e-15
1.2514676e-11
5.4255998e-15
1.2513324e-11
5.7301979e-15
5.5511343e-15
1.1614853e-11
-6.1956815e-12
1.9061795e-11
-6.0006403e-12
2.3195416e-11
-5.6510945e-12
2.5723253e-11
-5.5478776e-12
2.7219975e-11
-5.4385489e-12
2.8029893e-11
-5.2907865e-12
2.8414992e-11
-5.0867922e-12
2.8542431e-11
-4.812442e-12
2.8509575e-11
-4.4688625e-12
2.8373637e-11
-4.0675511e-12
2.8168588e-11
-3.6244172e-12
2.7914322e-11
-3.1564126e-12
2.7622414e-11
-2.679464e-12
2.7299715e-11
-2.2073116e-12
2.6950486e-11
-1.7510725e-12
2.6577656e-11
-1.3192523e-12
2.6183566e-11
-9.1798259e-13
2.577038e-11
-5.5132541e-13
2.5340322e-11
-2.2166455e-13
2.4895767e-11
7.0012846e-14
2.4438955e-11
3.241187e-13
2.3971896e-11
5.4204895e-13
2.3496721e-11
7.2568104e-13
2.3015639e-11