/*--------------------------------*- C++ -*----------------------------------*\
| =========                 |                                                 |
| \\      /  F ield         | OpenFOAM: The Open Source CFD Toolbox           |
|  \\    /   O peration     | Version:  2406                                  |
|   \\  /    A nd           | Website:  www.openfoam.com                      |
|    \\/     M anipulation  |                                                 |
\*---------------------------------------------------------------------------*/
FoamFile
{
    version     2.0;
    format      ascii;
    arch        "LSB;label=32;scalar=64";
    class       volScalarField;
    location    "2500";
    object      T;
}
// * * * * * * * * * * * * * * * * * * * * * * * * * * * * * * * * * * * * * //

dimensions      [0 0 0 0 0 0 0];

internalField   nonuniform List<scalar> 
9800
(
1
1
1
1
1
1
1
1
1
1
1
1
1
1
1
1
1
1
1
1
1
1
1
1
1
1
1
1
1
1
1
1
1
1
1
1
1
1
1
1
1
1
1
1
1
1
1
1
1
1
1
1
1
1
1
1
1
1
1
1
1
1
1
1
1
1
1
1
1
1
1
1
1
1
1
1
1
1
1
1
1
1
1
1
1
1
1
1
1
1
1
1
1
1
1
1
1
1
1
1
1
1
1
1
1
1
1
1
1
1
1
1
1
1
1
1
1
1
1
1
1
1
1
1
1
1
1
1
1
1
1
1
1
1
1
1
1
1
1
1
1
1
1
1
1
1
1
1
1
1
1
1
1
1
1
1
1
1
1
1
1
1
1
1
1
1
1
1
1
1
1
1
1
1
1
1
1
1
1
1
1
1
1
1
1
1
1
1
1
1
1
1
1
1
1
1
1
1
1
1
1
1
1
1
1
1
1
1
1
1
1
1
1
1
1
1
1
1
1
1
1
1
1
1
1
1
1
1
1
1
1
1
1
1
1
1
1
1
1
1
1
1
1
1
1
1
1
1
1
1
1
1
1
1
1
1
1
1
1
1
1
1
1
1
1
1
1
1
1
1
1
1
1
1
1
1
1
1
1
1
1
1
1
1
1
1
1
1
1
1
1
1
1
1
1
1
1
1
1
1
1
1
1
1
1
1
1
1
1
1
1
1
1
1
1
1
1
1
1
1
1
1
1
1
1
1
1
1
1
1
1
1
1
1
1
1
1
1
1
1
1
1
1
1
1
1
1
1
1
1
1
1
1
1
1
1
1
1
1
1
1
1
1
1
1
1
1
1
1
1
1
1
1
1
1
1
1
1
1
1
1
1
1
1
1
1
1
1
1
1
1
1
1
1
1
1
1
1
1
1
1
1
1
1
1
1
1
1
1
1
1
1
1
1
1
1
1
1
1
1
1
1
1
1
1
1
1
1
1
1
1
1
1
1
1
1
1
1
1
1
1
1
1
1
1
1
1
1
1
1
1
1
1
1
1
1
1
1
1
1
1
1
1
1
1
1
1
1
1
1
1
1
1
1
1
1
1
1
1
1
1
1
1
1
1
1
1
1
1
1
1
1
1
1
1
1
1
1
1
1
1
1
1
1
1
1
1
1
1
1
1
1
1
1
1
1
1
1
1
1
1
1
1
1
1
1
1
1
1
1
1
1
1
1
1
1
1
1
1
1
1
1
1
1
1
1
1
1
1
1
1
1
1
1
1
1
1
1
1
1
1
1
1
1
1
1
1
1
1
1
1
1
1
1
1
1
1
1
1
1
1
1
1
1
1
1
1
1
1
1
1
1
1
1
1
1
1
1
1
1
1
1
1
1
1
1
1
1
1
1
1
1
1
1
1
1
1
1
1
1
1
1
1
1
1
1
1
1
1
1
1
1
1
1
1
1
1
1
1
1
1
1
1
1
1
1
1
1
1
1
1
1
1
1
1
1
1
1
1
1
1
1
1
1
1
1
1
1
1
1
1
1
1
1
1
1
1
1
1
1
1
1
1
1
1
1
1
1
1
1
1
1
1
1
1
1
1
1
1
1
1
1
1
1
1
1
1
1
1
1
1
1
1
1
1
1
1
1
1
1
1
1
1
1
1
1
1
1
1
1
1
1
1
1
1
1
1
1
1
1
1
1
1
1
1
1
1
1
1
1
1
1
1
1
1
1
1
1
1
1
1
1
1
1
1
1
1
1
1
1
1
1
1
1
1
1
1
1
1
1
1
1
1
1
1
1
1
1
1
1
1
1
1
1
1
1
1
1
1
1
1
1
1
1
1
1
1
1
1
1
1
1
1
1
1
1
1
1
1
1
1
1
1
1
1
1
1
1
1
1
1
1
1
1
1
1
1
1
1
1
1
1
1
1
1
1
1
1
1
1
1
1
1
1
1
1
1
1
1
1
1
1
1
1
1
1
1
1
1
1
1
1
1
1
1
1
1
1
1
1
1
1
1
1
1
1
1
1
1
1
1
1
1
1
1
1
1
1
1
1
1
1
1
1
1
1
1
1
1
1
1
1
1
1
1
1
1
1
1
1
1
1
1
1
1
1
1
1
1
1
1
1
1
1
1
1
1
1
1
1
1
1
1
1
1
1
1
1
1
1
1
1
1
1
1
1
1
1
1
1
1
1
1
1
1
1
1
1
1
1
1
1
1
1
1
1
1
1
1
1
1
1
1
1
1
1
1
1
1
1
1
1
1
1
1
1
1
1
1
1
1
1
1
1
1
1
1
1
1
1
1
1
1
1
1
1
1
1
1
1
1
1
1
1
1
1
1
1
1
1
1
1
1
1
1
1
1
1
1
1
1
1
1
1
1
1
1
1
1
1
1
1
1
1
1
1
1
1
1
1
1
1
1
1
1
1
1
1
1
1
1
1
1
1
1
1
1
1
1
1
1
1
1
1
1
1
1
1
1
1
1
1
1
1
1
1
1
1
1
1
1
1
1
1
1
1
1
1
1
1
1
1
1
1
1
1
1
1
1
1
1
1
1
1
1
1
1
1
1
1
1
1
1
1
1
1
1
1
1
1
1
1
1
1
1
1
1
1
1
1
1
1
1
1
1
1
1
1
1
1
1
1
1
1
1
1
1
1
1
1
1
1
1
1
1
1
1
1
1
1
1
1
1
1
1
1
1
1
1
1
1
1
1
1
1
1
1
1
1
1
1
1
1
1
1
1
1
1
1
1
1
1
1
1
1
1
1
1
1
1
1
1
1
1
1
1
1
1
1
1
1
1
1
1
1
1
1
1
1
1
1
1
1
1
1
1
1
1
1
1
1
1
1
1
1
1
1
1
1
1
1
1
1
1
1
1
1
1
1
1
1
1
1
1
1
1
1
1
1
1
1
1
1
1
1
1
1
1
1
1
1
1
1
1
1
1
1
1
1
1
1
1
1
1
1
1
1
1
1
1
1
1
1
1
1
1
1
1
1
1
1
1
1
1
1
1
1
1
1
1
1
1
1
1
1
1
1
1
1
1
1
1
1
1
1
1
1
1
1
1
1
1
1
1
1
1
1
1
1
1
1
1
1
1
1
1
1
1
1
1
1
1
1
1
1
1
1
1
1
1
1
1
1
1
1
1
1
1
1
1
1
1
1
1
1
1
1
1
1
1
1
1
1
1
1
1
1
1
1
1
1
1
1
1
1
1
1
1
1
1
1
1
1
1
1
1
1
1
1
1
1
1
1
1
1
1
1
1
1
1
1
1
1
1
1
1
1
1
1
1
1
1
1
1
1
1
1
1
1
1
1
1
1
1
1
1
1
1
1
1
1
1
1
1
1
1
1
1
1
1
1
1
1
1
1
1
1
1
1
1
1
1
1
1
1
1
1
1
1
1
1
1
1
1
1
1
1
1
1
1
1
1
1
1
1
1
1
1
1
1
1
1
1
1
1
1
1
1
1
1
1
1
1
1
1
1
1
1
1
1
1
1
1
1
1
1
1
1
1
1
1
1
1
1
1
1
1
1
1
1
1
1
1
1
1
1
1
1
1
1
1
1
1
1
1
1
1
1
1
1
1
1
1
1
1
1
1
1
1
1
1
1
1
1
1
1
1
1
1
1
1
1
1
1
1
1
1
1
1
1
1
1
1
1
1
1
1
1
1
1
1
1
1
1
1
1
1
1
1
1
1
1
1
1
1
1
1
1
1
1
1
1
1
1
1
1
1
1
1
1
1
1
1
1
1
1
1
1
1
1
1
1
1
1
1
1
1
1
1
1
1
1
1
1
1
1
1
1
1
1
1
1
1
1
1
1
1
1
1
1
1
1
1
1
1
1
1
1
1
1
1
1
1
1
1
1
1
1
1
1
1
1
1
1
1
1
1
1
1
1
1
1
1
1
1
1
1
1
1
1
1
1
1
1
1
1
1
1
1
1
1
1
1
1
1
1
1
1
1
1
1
1
1
1
1
1
1
1
1
1
1
1
1
1
1
1
1
1
1
1
1
1
1
1
1
1
1
1
1
1
1
1
1
1
1
1
1
1
1
1
1
1
1
1
1
1
1
1
1
1
1
1
1
1
1
1
1
1
1
1
1
1
1
1
1
1
1
1
1
1
1
1
1
1
1
1
1
1
1
1
1
1
1
1
1
1
1
1
1
1
1
1
1
1
1
1
1
1
1
1
1
1
1
1
1
1
1
1
1
1
1
1
1
1
1
1
1
1
1
1
1
1
1
1
1
1
1
1
1
1
1
1
1
1
1
1
1
1
1
1
1
1
1
1
1
1
1
1
1
1
1
1
1
1
1
1
1
1
1
1
1
1
1
1
1
1
1
1
1
1
1
1
1
1
1
1
1
1
1
1
1
1
1
1
1
1
1
1
1
1
1
1
1
1
1
1
1
1
1
1
1
1
1
1
1
1
1
1
1
1
1
1
1
1
1
1
1
1
1
1
1
1
1
1
1
1
1
1
1
1
1
1
1
1
1
1
1
1
1
1
1
1
1
1
1
1
1
1
1
1
1
1
1
1
1
1
1
1
1
1
1
1
1
1
1
1
1
1
1
1
1
1
1
1
1
1
1
1
1
1
1
1
1
1
1
1
1
1
1
1
1
1
1
1
1
1
1
1
1
1
1
1
1
1
1
1
1
1
1
1
1
1
1
1
1
1
1
1
1
1
1
1
1
1
1
1
1
1
1
1
1
1
1
1
1
1
1
1
1
1
1
1
1
1
1
1
1
1
1
1
1
1
1
1
1
1
1
1
1
1
1
1
1
1
1
1
1
1
1
1
1
1
1
1
1
1
1
1
1
1
1
1
1
1
1
1
1
1
1
1
1
1
1
1
1
1
1
1
1
1
1
1
1
1
1
1
1
1
1
1
1
1
1
1
1
1
1
1
1
1
1
1
1
1
1
1
1
1
1
1
1
1
1
1
1
1
1
1
1
1
1
1
1
1
1
1
1
1
1
1
1
1
1
1
1
1
1
1
1
1
1
1
1
1
1
1
1
1
1
1
1
1
1
1
1
1
1
1
1
1
1
1
1
1
1
1
1
1
1
1
1
1
1
1
1
1
1
1
1
1
1
1
1
1
1
1
1
1
1
1
1
1
1
1
1
1
1
1
1
1
1
1
1
1
1
1
1
1
1
1
1
1
1
1
1
1
1
1
1
1
1
1
1
1
1
1
1
1
1
1
1
1
1
1
1
1
1
1
1
1
1
1
1
1
1
1
1
1
1
1
1
1
1
1
1
1
1
1
1
1
1
1
1
1
1
1
1
1
1
1
1
1
1
1
1
1
1
1
1
1
1
1
1
1
1
1
1
1
1
1
1
1
1
1
1
1
1
1
1
1
1
1
1
1
1
1
1
1
1
1
1
1
1
1
1
1
1
1
1
1
1
1
1
1
1
1
1
1
1
1
1
1
1
1
1
1
1
1
1
1
1
1
1
1
1
1
1
1
1
1
1
1
1
1
1
1
1
1
1
1
1
1
1
1
1
1
1
1
1
1
1
1
1
1
1
1
1
1
1
1
1
1
1
1
1
1
1
1
1
1
1
1
1
1
1
1
1
1
1
1
1
1
1
1
1
1
1
1
1
1
1
1
1
1
1
1
1
1
1
1
1
1
1
1
1
1
1
1
1
1
1
1
1
1
1
1
1
1
1
1
1
1
1
1
1
1
1
1
1
1
1
1
1
1
1
1
1
1
1
1
1
1
1
1
1
1
1
1
1
1
1
1
1
1
1
1
1
1
1
1
1
1
1
1
1
1
1
1
1
1
1
1
1
1
1
1
1
1
1
1
1
1
1
1
1
1
1
1
1
1
1
1
1
1
1
1
1
1
1
1
1
1
1
1
1
1
1
1
1
1
1
1
1
1
1
1
1
1
1
1
1
1
1
1
1
1
1
1
1
1
1
1
1
1
1
1
1
1
1
1
1
1
1
1
1
1
1
1
1
1
1
1
1
1
1
1
1
1
1
1
1
1
1
1
1
1
1
1
1
1
1
1
1
1
1
1
1
1
1
1
1
1
1
1
1
1
1
1
1
1
1
1
1
1
1
1
1
1
1
1
1
1
1
1
1
1
1
1
1
1
1
1
1
1
1
1
1
1
1
1
1
1
1
1
1
1
1
1
1
1
1
1
1
1
1
1
1
1
1
1
1
1
1
1
1
1
1
1
1
1
1
1
1
1
1
1
1
1
1
1
1
1
1
1
1
1
1
1
1
1
1
1
1
1
1
1
1
1
1
1
1
1
1
1
1
1
1
1
1
1
1
1
1
1
1
1
1
1
1
1
1
1
0.99999999
0.99999999
0.99999999
0.99999999
0.99999999
0.99999999
0.99999999
0.99999999
1
1
1
1
1
1
1
1
1
1
1
1
1
1
1
1
1
1
1
1
1
1
1
1
1
1
1
1
1
1
1
1
1
1
1
1
1
1
1
1
1
1
1
1
1
1
1
1
1
1
1
1
1
1
1
1
1
1
1
1
1
1
1
1
1
1
1
1
1
1
1
1
1
1
1
1
1
1
1
1
1
1
1
1
1
1
1
1
1
1
1
1
1
1
1
1
1
1
1
1
1
1
1
1
1
1
1
1
1
1
1
1
1
1
1
1
1
1
1
1
1
1
1
1
1
1
1
1
1
1
1
1
1
1
1
1
1
1
0.99999999
0.99999999
0.99999999
0.99999999
0.99999999
0.99999999
0.99999999
0.99999999
0.99999999
0.99999999
0.99999999
0.99999999
0.99999999
0.99999999
0.99999999
0.99999999
0.99999999
0.99999999
0.99999999
0.99999999
0.99999999
0.99999999
0.99999999
0.99999999
0.99999999
0.99999999
0.99999999
0.99999999
0.99999999
0.99999999
0.99999999
0.99999999
0.99999999
0.99999999
0.99999999
0.99999999
0.99999998
0.99999998
0.99999998
0.99999998
0.99999997
0.99999997
0.99999996
0.99999996
0.99999996
0.99999995
0.99999995
0.99999994
0.99999994
0.99999993
0.99999993
0.99999992
0.99999992
0.99999991
0.99999991
0.9999999
0.9999999
0.9999999
0.9999999
0.99999989
0.99999989
0.99999989
0.99999999
0.99999999
0.99999998
0.99999998
0.99999997
0.99999997
0.99999997
0.99999996
0.99999996
0.99999996
0.99999996
0.99999996
0.99999996
0.99999997
0.99999997
0.99999997
0.99999997
0.99999998
0.99999998
0.99999998
0.99999998
0.99999998
0.99999999
0.99999999
0.99999999
0.99999999
0.99999999
0.99999999
0.99999999
0.99999999
1
1
1
1
1
1
1
1
1
1
1
1
1
1
1
1
1
1
1
1
1
1
1
1
1
1
1
1
1
1
1
1
1
1
1
1
1
1
1
1
1
1
1
1
1
1
1
1
1
1
1
1
1
0.99999999
0.99999999
0.99999999
0.99999999
0.99999999
0.99999999
0.99999999
0.99999999
0.99999999
0.99999999
0.99999999
0.99999999
0.99999999
0.99999999
0.99999999
0.99999999
0.99999999
0.99999999
0.99999999
0.99999999
0.99999999
0.99999999
0.99999999
0.99999999
0.99999999
0.99999999
0.99999999
0.99999999
0.99999999
0.99999999
0.99999999
0.99999999
0.99999999
0.99999999
0.99999999
0.99999999
0.99999999
0.99999999
0.99999999
0.99999999
0.99999999
0.99999999
0.99999999
0.99999998
0.99999998
0.99999998
0.99999998
0.99999997
0.99999997
0.99999996
0.99999996
0.99999995
0.99999994
0.99999993
0.99999992
0.99999992
0.99999991
0.9999999
0.99999989
0.99999989
0.99999988
0.99999988
0.99999988
0.99999988
0.99999988
0.99999988
0.99999988
0.99999988
0.99999988
0.99999988
0.99999988
0.99999988
0.99999988
0.99999988
0.99999988
0.99999988
0.99999988
0.99999988
0.99999988
0.99999988
0.99999988
0.99999987
0.99999987
0.99999986
0.99999986
0.99999985
0.99999983
0.99999982
0.9999998
0.99999977
0.99999975
0.99999972
0.99999968
0.99999964
0.9999996
0.99999955
0.99999949
0.99999943
0.99999937
0.9999993
0.99999923
0.99999916
0.99999909
0.99999902
0.99999895
0.99999888
0.99999881
0.99999875
0.99999869
0.99999863
0.99999858
0.99999854
0.99999849
0.99999845
0.99999841
0.99999838
0.99999834
0.99958145
0.99965161
0.99970592
0.99974269
0.99976783
0.99978731
0.99980416
0.99981994
0.99983544
0.99985094
0.99986643
0.9998817
0.99989647
0.99991045
0.99992338
0.99993507
0.99994545
0.99995449
0.99996224
0.9999688
0.99997429
0.99997883
0.99998258
0.99998564
0.99998815
0.99999019
0.99999185
0.99999321
0.99999432
0.99999523
0.99999598
0.9999966
0.99999711
0.99999754
0.99999789
0.99999819
0.99999845
0.99999866
0.99999884
0.999999
0.99999913
0.99999924
0.99999933
0.99999942
0.99999948
0.99999954
0.99999959
0.99999964
0.99999967
0.99999971
0.99999973
0.99999976
0.99999978
0.99999979
0.99999981
0.99999982
0.99999983
0.99999984
0.99999985
0.99999986
0.99999986
0.99999987
0.99999987
0.99999988
0.99999988
0.99999988
0.99999988
0.99999988
0.99999989
0.99999989
0.99999989
0.99999989
0.99999989
0.99999989
0.99999989
0.99999989
0.99999988
0.99999988
0.99999988
0.99999987
0.99999987
0.99999986
0.99999986
0.99999986
0.99999985
0.99999985
0.99999984
0.99999984
0.99999984
0.99999984
0.99999983
0.99999983
0.99999983
0.99999983
0.99999983
0.99999984
0.99999984
0.99999984
0.99999984
0.99999984
0.99999984
0.99999984
0.99999984
0.99999984
0.99999984
0.99999984
0.99999985
0.99999985
0.99999985
0.99999985
0.99999985
0.99999985
0.99999985
0.99999985
0.99999985
0.99999985
0.99999985
0.99999985
0.99999985
0.99999985
0.99999985
0.99999984
0.99999984
0.99999983
0.99999982
0.9999998
0.99999978
0.99999976
0.99999972
0.99999968
0.99999963
0.99999957
0.99999949
0.99999941
0.99999931
0.9999992
0.99999909
0.99999897
0.99999884
0.99999872
0.99999861
0.99999851
0.99999842
0.99999834
0.99999829
0.99999825
0.99999823
0.99999823
0.99999823
0.99999823
0.99999824
0.99999824
0.99999824
0.99999825
0.99999825
0.99999826
0.99999826
0.99999826
0.99999827
0.99999827
0.99999827
0.99999827
0.99999825
0.99999822
0.99999817
0.99999809
0.99999799
0.99999786
0.99999771
0.99999752
0.99999729
0.99999702
0.99999671
0.99999635
0.99999594
0.99999548
0.99999497
0.9999944
0.99999379
0.99999313
0.99999243
0.99999169
0.99999092
0.99999014
0.99998934
0.99998854
0.99998775
0.99998697
0.99998622
0.9999855
0.99998481
0.99998416
0.99998355
0.99998298
0.99998245
0.99998195
0.99998148
0.99998103
0.9999806
0.99998016
0.99912561
0.99924017
0.99931413
0.99936429
0.99940547
0.99943947
0.99946996
0.99950141
0.99953586
0.99957284
0.99961157
0.99965104
0.9996902
0.99972802
0.99976367
0.9997965
0.99982613
0.99985238
0.99987528
0.999895
0.99991178
0.99992594
0.9999378
0.99994769
0.99995591
0.99996273
0.99996838
0.99997307
0.99997698
0.99998023
0.99998296
0.99998526
0.9999872
0.99998884
0.99999025
0.99999146
0.9999925
0.99999339
0.99999417
0.99999485
0.99999543
0.99999594
0.99999639
0.99999678
0.99999711
0.99999741
0.99999767
0.99999789
0.99999809
0.99999826
0.9999984
0.99999853
0.99999865
0.99999874
0.99999883
0.9999989
0.99999897
0.99999902
0.99999907
0.99999912
0.99999915
0.99999918
0.99999921
0.99999923
0.99999926
0.99999927
0.99999929
0.9999993
0.99999931
0.99999932
0.99999932
0.99999932
0.99999933
0.99999933
0.99999933
0.99999932
0.99999932
0.99999931
0.99999929
0.99999927
0.99999926
0.99999924
0.99999921
0.99999919
0.99999916
0.99999913
0.9999991
0.99999907
0.99999905
0.99999902
0.999999
0.99999899
0.99999899
0.99999899
0.999999
0.999999
0.999999
0.99999901
0.99999901
0.99999902
0.99999902
0.99999903
0.99999904
0.99999905
0.99999905
0.99999906
0.99999907
0.99999908
0.99999908
0.99999909
0.9999991
0.9999991
0.99999911
0.99999911
0.99999912
0.99999912
0.99999912
0.99999912
0.99999911
0.99999909
0.99999906
0.999999
0.99999892
0.99999881
0.99999865
0.99999843
0.99999815
0.99999777
0.99999729
0.99999669
0.99999595
0.99999508
0.99999406
0.99999291
0.99999163
0.99999025
0.99998881
0.99998732
0.99998584
0.99998439
0.99998303
0.99998179
0.9999807
0.99997978
0.99997904
0.9999785
0.99997815
0.99997799
0.999978
0.99997802
0.99997805
0.99997809
0.99997814
0.99997819
0.99997824
0.99997828
0.99997833
0.99997837
0.9999784
0.99997842
0.99997842
0.99997827
0.99997793
0.99997741
0.99997668
0.99997571
0.99997448
0.99997297
0.99997116
0.99996902
0.99996652
0.99996365
0.99996039
0.99995673
0.99995265
0.99994816
0.99994328
0.99993801
0.99993239
0.99992646
0.99992025
0.99991384
0.99990728
0.99990063
0.99989396
0.99988733
0.99988082
0.99987446
0.99986833
0.99986244
0.99985684
0.99985153
0.99984653
0.99984183
0.9998374
0.99983323
0.99982927
0.99982547
0.99982178
0.99981808
0.9991255
0.99924431
0.99938035
0.99946034
0.99951561
0.99954607
0.99956171
0.99956606
0.99956398
0.99956515
0.99957264
0.99958726
0.99960858
0.99963532
0.99966579
0.99969819
0.99973088
0.99976254
0.99979224
0.99981937
0.99984365
0.99986504
0.99988363
0.99989963
0.99991331
0.99992496
0.99993484
0.99994322
0.99995033
0.99995637
0.99996153
0.99996595
0.99996975
0.99997304
0.99997591
0.99997842
0.99998062
0.99998257
0.9999843
0.99998584
0.9999872
0.99998842
0.99998951
0.99999048
0.99999134
0.99999211
0.9999928
0.9999934
0.99999395
0.99999443
0.99999485
0.99999523
0.99999556
0.99999586
0.99999612
0.99999635
0.99999656
0.99999674
0.9999969
0.99999703
0.99999716
0.99999727
0.99999736
0.99999744
0.99999751
0.99999757
0.99999763
0.99999767
0.99999771
0.99999774
0.99999776
0.99999777
0.99999778
0.99999779
0.99999779
0.99999777
0.99999775
0.99999771
0.99999766
0.9999976
0.99999751
0.99999737
0.99999717
0.99999689
0.99999652
0.99999606
0.99999551
0.9999949
0.99999427
0.99999367
0.99999316
0.99999277
0.99999256
0.99999253
0.99999255
0.99999257
0.9999926
0.99999264
0.99999268
0.99999273
0.99999279
0.99999285
0.99999292
0.99999298
0.99999305
0.99999312
0.99999319
0.99999326
0.99999332
0.99999339
0.99999344
0.99999349
0.99999354
0.99999357
0.9999936
0.99999362
0.99999363
0.99999361
0.9999934
0.99999295
0.99999224
0.9999912
0.99998975
0.99998779
0.9999852
0.99998187
0.99997766
0.99997246
0.99996617
0.9999587
0.99995003
0.99994016
0.99992916
0.99991716
0.99990432
0.99989087
0.99987708
0.99986324
0.99984965
0.9998366
0.99982437
0.99981321
0.9998033
0.9997948
0.99978779
0.99978231
0.99977832
0.99977576
0.9997745
0.99977452
0.99977474
0.99977506
0.99977544
0.99977585
0.99977627
0.99977668
0.99977704
0.99977733
0.99977753
0.99977736
0.99977597
0.99977335
0.99976933
0.99976377
0.99975652
0.99974743
0.99973638
0.99972321
0.99970783
0.99969012
0.99967
0.99964742
0.99962234
0.9995948
0.99956483
0.99953256
0.99949812
0.99946173
0.99942361
0.99938407
0.99934342
0.999302
0.99926016
0.99921828
0.99917672
0.99913579
0.99909582
0.99905707
0.99901977
0.99898408
0.99895011
0.99891792
0.9988875
0.99885878
0.99883164
0.99880589
0.99878134
0.9987577
0.9987347
0.99871176
0.99910452
0.99924418
0.99938037
0.99948921
0.99956963
0.99960708
0.99962342
0.99962807
0.99962809
0.99961975
0.99960956
0.9996036
0.9996051
0.99961488
0.99963214
0.99965519
0.99968201
0.99971071
0.99973967
0.99976768
0.99979394
0.99981795
0.9998395
0.99985857
0.99987526
0.99988975
0.99990228
0.99991308
0.99992237
0.99993038
0.9999373
0.9999433
0.99994854
0.99995314
0.99995721
0.99996083
0.99996408
0.99996701
0.99996966
0.99997208
0.99997428
0.9999763
0.99997814
0.99997983
0.99998137
0.99998277
0.99998405
0.99998521
0.99998627
0.99998722
0.99998809
0.99998887
0.99998957
0.9999902
0.99999077
0.99999128
0.99999174
0.99999214
0.99999251
0.99999284
0.99999313
0.99999339
0.99999361
0.99999382
0.99999399
0.99999414
0.99999428
0.99999439
0.99999448
0.99999455
0.99999461
0.99999465
0.99999467
0.99999468
0.99999466
0.99999462
0.99999452
0.99999431
0.99999387
0.99999301
0.99999144
0.99998885
0.99998491
0.99997939
0.99997216
0.99996328
0.99995301
0.99994181
0.99993029
0.99991913
0.99990906
0.99990074
0.9998947
0.99989134
0.99989098
0.99989129
0.99989177
0.99989241
0.99989319
0.9998941
0.99989511
0.99989621
0.99989738
0.9998986
0.99989984
0.99990109
0.99990233
0.99990353
0.99990468
0.99990575
0.99990673
0.9999076
0.99990835
0.99990896
0.99990942
0.99990972
0.99990984
0.99990831
0.99990411
0.99989693
0.99988637
0.99987192
0.99985301
0.99982902
0.9997993
0.99976327
0.99972039
0.9996703
0.99961282
0.99954797
0.99947608
0.99939773
0.99931376
0.99922529
0.99913364
0.99904027
0.99894677
0.99885475
0.99876577
0.9986813
0.99860264
0.99853089
0.99846689
0.99841122
0.99836417
0.99832575
0.99829571
0.99827354
0.99825852
0.99824976
0.99824705
0.9982484
0.99825025
0.99825239
0.99825459
0.99825664
0.99825833
0.99825884
0.99825432
0.99824385
0.99822711
0.99820319
0.99817127
0.99813059
0.99808048
0.99802033
0.99794964
0.99786799
0.99777511
0.99767082
0.99755512
0.99742817
0.99729028
0.99714196
0.99698388
0.9968169
0.99664205
0.9964605
0.99627355
0.9960826
0.99588911
0.99569457
0.99550045
0.99530818
0.9951191
0.99493443
0.99475522
0.99458237
0.99441656
0.99425826
0.99410773
0.99396498
0.99382984
0.9937019
0.99358058
0.99346509
0.99335453
0.99324783
0.9931439
0.99304054
0.99907453
0.99922052
0.99936901
0.99948922
0.99957131
0.99961706
0.99963482
0.9996353
0.99962821
0.99961965
0.99960958
0.99960449
0.99960495
0.99961175
0.999625
0.99964377
0.99966664
0.99969201
0.99971842
0.99974466
0.99976982
0.99979331
0.99981477
0.99983405
0.99985117
0.99986621
0.99987933
0.99989073
0.99990061
0.99990917
0.9999166
0.99992308
0.99992875
0.99993377
0.99993825
0.99994228
0.99994596
0.99994933
0.99995247
0.99995539
0.99995813
0.9999607
0.99996312
0.9999654
0.99996754
0.99996955
0.99997142
0.99997317
0.9999748
0.9999763
0.99997769
0.99997897
0.99998015
0.99998123
0.99998221
0.99998311
0.99998393
0.99998467
0.99998535
0.99998596
0.9999865
0.999987
0.99998744
0.99998783
0.99998817
0.99998847
0.99998873
0.99998895
0.99998912
0.99998927
0.99998937
0.99998945
0.99998949
0.99998949
0.99998932
0.99998857
0.9999863
0.99998086
0.99996989
0.99995052
0.99991968
0.99987457
0.99981319
0.99973471
0.99963974
0.99953043
0.99941033
0.99928414
0.99915729
0.99903551
0.99892436
0.99882885
0.99875308
0.99870002
0.99867139
0.99866996
0.99867473
0.99868196
0.9986914
0.99870278
0.99871581
0.99873018
0.99874556
0.99876165
0.99877812
0.99879465
0.99881095
0.99882671
0.99884166
0.99885554
0.99886809
0.9988791
0.99888835
0.99889568
0.99890092
0.99890396
0.99889978
0.99887424
0.99882681
0.99875578
0.99865927
0.9985353
0.99838194
0.99819744
0.99798046
0.99773016
0.99744644
0.99713003
0.99678256
0.99640661
0.99600568
0.99558412
0.995147
0.99469995
0.99424897
0.99380022
0.9933598
0.99293353
0.99252681
0.9921444
0.99179031
0.99146766
0.99117868
0.99092461
0.99070573
0.99052137
0.99037
0.99024928
0.99015616
0.99008701
0.9900377
0.99000447
0.9899847
0.98997231
0.98996118
0.98994532
0.98991885
0.98987682
0.98981749
0.98973692
0.9896315
0.98949795
0.98933342
0.98913548
0.98890212
0.98863184
0.98832363
0.98797699
0.98759201
0.98716929
0.98671003
0.98621597
0.98568943
0.9851332
0.98455057
0.98394523
0.98332123
0.98268288
0.98203464
0.98138107
0.98072669
0.98007591
0.97943293
0.97880161
0.97818546
0.97758751
0.97701028
0.97645573
0.97592524
0.97541958
0.97493892
0.97448285
0.97405037
0.97363998
0.97324969
0.97287708
0.97251935
0.97217338
0.97183603
0.97150157
0.99903946
0.9991797
0.99932947
0.99945785
0.99955158
0.99960865
0.99963459
0.99963906
0.99963273
0.99962403
0.99961815
0.99961816
0.99962132
0.99962863
0.99964058
0.99965684
0.99967655
0.99969858
0.99972176
0.99974511
0.99976982
0.9997912
0.99981055
0.99982801
0.99984358
0.99985731
0.99986931
0.99987974
0.99988875
0.99989652
0.99990322
0.99990902
0.99991407
0.9999185
0.99992245
0.99992602
0.9999293
0.99993237
0.99993528
0.99993808
0.99994079
0.99994343
0.999946
0.99994851
0.99995095
0.99995332
0.99995561
0.99995781
0.99995992
0.99996192
0.99996382
0.9999656
0.99996728
0.99996885
0.99997031
0.99997166
0.99997292
0.99997407
0.99997513
0.9999761
0.99997699
0.99997779
0.99997851
0.99997915
0.99997972
0.99998021
0.99998064
0.99998099
0.99998128
0.99998151
0.99998167
0.99998177
0.99998181
0.99997901
0.99996601
0.99993149
0.99986061
0.99973652
0.99954218
0.99926258
0.99888679
0.9984096
0.99783249
0.99716385
0.99641848
0.9956166
0.99478232
0.99394204
0.99312274
0.99235043
0.99164878
0.99103801
0.99053419
0.99014871
0.98988812
0.98975418
0.9897646
0.9898064
0.9898683
0.98994783
0.99004233
0.99014898
0.99026489
0.99038716
0.99051291
0.99063935
0.99076377
0.99088364
0.99099654
0.99110026
0.99119277
0.99127224
0.99133705
0.99138579
0.99141729
0.99142454
0.99132073
0.99111505
0.99080289
0.99038022
0.98984379
0.98919152
0.98842274
0.98753859
0.98654221
0.98543895
0.98423645
0.98294462
0.98157542
0.98014268
0.97866172
0.97714895
0.9756214
0.9740963
0.97259055
0.97112033
0.96970066
0.9683451
0.96706538
0.96587124
0.96477019
0.96376748
0.96286601
0.96206636
0.96136687
0.96076374
0.96025119
0.95982166
0.95946605
0.95917391
0.95893375
0.95873331
0.95855978
0.95840011
0.95824122
0.95807028
0.95787487
0.95764321
0.95736433
0.95702819
0.95662588
0.95614968
0.95559321
0.95495149
0.95422099
0.95339969
0.95248711
0.95148426
0.95039363
0.94921915
0.94796606
0.94664084
0.94525104
0.94380514
0.94231236
0.94078249
0.93922565
0.93765213
0.93607217
0.93449574
0.93293239
0.93139105
0.9298799
0.9284062
0.92697622
0.92559513
0.92426696
0.92299451
0.92177942
0.92062211
0.91952185
0.91847678
0.91748403
0.91653976
0.91563929
0.9147772
0.91394747
0.91314351
0.91235874
0.91158251
0.99899641
0.99911741
0.99925465
0.99938408
0.99949257
0.99957387
0.99962678
0.99965396
0.99966284
0.99966234
0.99965962
0.9996592
0.99966242
0.99966918
0.99967946
0.99969298
0.99970913
0.99972717
0.99974631
0.9997659
0.99978555
0.99980319
0.99981934
0.999834
0.99984711
0.99985871
0.99986931
0.999879
0.99988624
0.99989233
0.99989744
0.99990172
0.99990394
0.99990211
0.99989702
0.99988981
0.99988154
0.99987315
0.99986542
0.99985898
0.99985427
0.99985157
0.99985102
0.99985239
0.99985534
0.9998595
0.99986457
0.99987024
0.99987629
0.99988249
0.9998887
0.99989478
0.99990064
0.99990622
0.99991147
0.99991637
0.9999209
0.99992506
0.99992885
0.99993228
0.99993537
0.99993811
0.99994052
0.9999426
0.99994438
0.99994585
0.99994701
0.99994789
0.99994847
0.99994876
0.99994876
0.99994845
0.99984431
0.99955038
0.99902966
0.99823975
0.99714016
0.99569893
0.99389802
0.99173665
0.98923263
0.98642164
0.98335501
0.98009638
0.97671779
0.9732957
0.96990716
0.96662645
0.96352231
0.96065573
0.95807839
0.95583163
0.9539459
0.95244067
0.95132467
0.9505963
0.95024436
0.95034969
0.95056091
0.95086551
0.95124967
0.95169868
0.9521974
0.95273054
0.953283
0.9538401
0.95438781
0.9549129
0.95540304
0.95584696
0.95623443
0.95655637
0.95680483
0.95697302
0.95703242
0.95672513
0.95612316
0.95521815
0.95400607
0.9524875
0.95066777
0.94855712
0.94617061
0.94352799
0.94065334
0.93757459
0.93432288
0.93093187
0.92743695
0.92387438
0.92028052
0.91669105
0.91314023
0.90966028
0.90628085
0.90302851
0.89992642
0.89699408
0.89424708
0.89169706
0.88935162
0.88721438
0.88528511
0.88355979
0.8820309
0.8806876
0.87951607
0.87849979
0.87761993
0.87685571
0.87618486
0.87558399
0.8750291
0.87449597
0.87396063
0.87339977
0.87279117
0.87211404
0.87134937
0.8704803
0.8694923
0.86837347
0.86711465
0.86570956
0.86415486
0.8624501
0.86059766
0.85860263
0.8564726
0.85421744
0.851849
0.84938082
0.84682779
0.84420581
0.84153139
0.83882139
0.83609259
0.83336147
0.83064382
0.82795456
0.82530748
0.82271504
0.82018821
0.81773638
0.81536721
0.81308664
0.81089884
0.80880619
0.80680935
0.80490731
0.80309749
0.80137579
0.79973679
0.79817381
0.79667915
0.79524419
0.79385959
0.79251547
0.79120181
0.78990468
0.99893753
0.99902015
0.9991195
0.99922541
0.99933199
0.99943538
0.9995323
0.9996117
0.99966644
0.99969897
0.99971383
0.99971388
0.99971642
0.99972175
0.99972971
0.99974004
0.99975229
0.99976592
0.99978033
0.9997949
0.99980902
0.99982191
0.99983354
0.99984366
0.99985203
0.99985835
0.99986223
0.99986267
0.99985743
0.99984278
0.99978787
0.99971882
0.9898902
0.95839062
0.92080223
0.88382801
0.85090382
0.8239666
0.80413205
0.79199394
0.78777626
0.7914254
0.8026766
0.81718105
0.83206701
0.84694568
0.86147027
0.8753597
0.88840744
0.90047916
0.911504
0.92146281
0.9303756
0.93829001
0.94527139
0.95139484
0.95673926
0.96138298
0.96540088
0.96886265
0.97183177
0.97436516
0.97651318
0.97831987
0.97982341
0.98105651
0.98204695
0.98281808
0.98338929
0.98377653
0.98399268
0.98350058
0.98197586
0.97946751
0.9759759
0.9715216
0.96615078
0.95993718
0.95298069
0.94540339
0.9373438
0.92895046
0.92037551
0.91176898
0.90327391
0.89502265
0.88713409
0.87971197
0.87284381
0.86660057
0.86103675
0.85619073
0.85208548
0.84872922
0.84611634
0.84422821
0.84303403
0.84249826
0.84282876
0.84344884
0.84431714
0.84538907
0.84661819
0.84795728
0.84935948
0.85077907
0.85217226
0.85349779
0.85471729
0.85579572
0.85670155
0.85740692
0.85788774
0.85794773
0.8572625
0.85604947
0.85429779
0.85200761
0.84918984
0.84586567
0.84206572
0.83782891
0.83320115
0.8282339
0.8229826
0.81750519
0.81186063
0.80610752
0.80030297
0.79450154
0.78875438
0.78310862
0.77760681
0.7722866
0.76718054
0.76231589
0.75771467
0.75339367
0.74936454
0.74563396
0.7422038
0.73907133
0.73622949
0.73366711
0.73136924
0.72931744
0.72749016
0.7258631
0.72440963
0.72310126
0.7219081
0.7207994
0.71974403
0.71871108
0.71767039
0.71659305
0.71545195
0.71422225
0.71288181
0.71141157
0.70979583
0.70802255
0.70608339
0.70397385
0.70169316
0.69924421
0.69663327
0.69386975
0.69096582
0.68793601
0.6847968
0.68156614
0.67826302
0.67490702
0.67151787
0.66811508
0.66471756
0.66134331
0.65800917
0.65473055
0.65152126
0.64839341
0.64535723
0.64242109
0.63959141
0.63687268
0.63426749
0.63177659
0.62939897
0.62713194
0.62497125
0.62291123
0.62094492
0.61906426
0.61726023
0.61552301
0.61384223
0.61220713
0.6106067
0.60902801
0.99884335
0.99885206
0.99885552
0.99885769
0.9988593
0.9988606
0.99891787
0.99903387
0.99913912
0.99916796
0.99916882
0.99916599
0.99914486
0.99910278
0.99903468
0.99893223
0.99878264
0.99856662
0.99825523
0.99780498
0.99715
0.99618967
0.99476878
0.99264435
0.98942862
0.98448426
0.97671396
0.96407995
0.94226616
0.899402
0.80422248
0.67765219
0.6080569
0.57123627
0.54549546
0.52502463
0.50769936
0.49265391
0.47953344
0.46820529
0.45863258
0.45081537
0.44476315
0.44481333
0.45346452
0.47034362
0.49351745
0.5205778
0.55024763
0.58133608
0.6128046
0.64380015
0.67366242
0.70191276
0.72823218
0.75243436
0.77443779
0.7942399
0.81189452
0.82749321
0.84115045
0.85299225
0.8631477
0.87174292
0.8788969
0.8847188
0.8893064
0.89274544
0.89510964
0.89646135
0.89537778
0.89183816
0.88634143
0.87903059
0.87009072
0.85974083
0.84822353
0.83579395
0.82270899
0.8092181
0.79555591
0.78193709
0.76855309
0.75557071
0.74313189
0.73135456
0.72033398
0.71014453
0.70084144
0.69246268
0.68503052
0.67855301
0.67302522
0.66843021
0.66473986
0.6619155
0.65990838
0.65866011
0.6581616
0.65875084
0.65979773
0.66122197
0.66293889
0.66486154
0.6669027
0.66897662
0.67100054
0.67289597
0.67458981
0.67601513
0.67711191
0.67782749
0.67757656
0.67645197
0.6747199
0.67237013
0.66940756
0.66585149
0.66173435
0.6570999
0.65200125
0.64649859
0.64065694
0.63454393
0.62822786
0.6217759
0.61525264
0.60871893
0.60223102
0.59583997
0.58959123
0.58352454
0.57767386
0.57206747
0.56672816
0.56167345
0.55691585
0.55246315
0.54831865
0.54448148
0.54094686
0.53770634
0.53474805
0.53205703
0.52961541
0.52740276
0.52539635
0.52357153
0.52190203
0.52036042
0.51891845
0.51754757
0.51621938
0.51490609
0.513581
0.51221903
0.51079707
0.50929449
0.50769339
0.50597898
0.50413975
0.50216758
0.50005784
0.4978093
0.495424
0.49290706
0.4902664
0.48751236
0.48465738
0.48171555
0.47870223
0.47563362
0.47252634
0.46939712
0.46626239
0.46313801
0.46003902
0.4569794
0.45397189
0.45102789
0.44815731
0.44536853
0.44266836
0.44006205
0.43755326
0.43514414
0.43283537
0.43062622
0.42851463
0.42649731
0.42456985
0.42272682
0.4209619
0.41926803
0.41763747
0.41606206
0.41453323
0.41304235
0.41158038
0.41013875
0.99075813
0.98931894
0.98826104
0.98763113
0.98732591
0.98724625
0.98724777
0.98724949
0.98725133
0.98725327
0.98714515
0.98684047
0.98627683
0.98538163
0.98406287
0.98219792
0.97961922
0.97609555
0.97130717
0.96481285
0.95600655
0.94406254
0.92786937
0.90595693
0.87642778
0.8369181
0.78464867
0.7167657
0.64487774
0.58166592
0.558655
0.54303516
0.52594074
0.50795895
0.48965934
0.47154424
0.45403482
0.43747005
0.4221121
0.40815511
0.39573513
0.38494016
0.37581933
0.3683907
0.36264754
0.35856371
0.35758972
0.36154547
0.3702921
0.38293858
0.39929458
0.41891445
0.44117057
0.46533465
0.49065151
0.51639707
0.54191817
0.5666551
0.5901504
0.61204739
0.63208199
0.65007077
0.66589751
0.67949966
0.6908558
0.69997475
0.70688641
0.71163479
0.71413321
0.71202881
0.70688743
0.69950637
0.69014574
0.67910763
0.66671611
0.65329896
0.63917256
0.6246307
0.6099372
0.5953222
0.58098109
0.56707564
0.55373641
0.54106594
0.52914229
0.51802246
0.5077456
0.49833585
0.48980473
0.48215309
0.47537259
0.46944686
0.4643523
0.46005858
0.45652895
0.45372032
0.45158337
0.45006243
0.44909556
0.44867185
0.44918296
0.45019478
0.45153892
0.4531137
0.45481606
0.45654371
0.45819708
0.45968113