/*--------------------------------*- C++ -*----------------------------------*\
| =========                 |                                                 |
| \\      /  F ield         | OpenFOAM: The Open Source CFD Toolbox           |
|  \\    /   O peration     | Version:  2406                                  |
|   \\  /    A nd           | Website:  www.openfoam.com                      |
|    \\/     M anipulation  |                                                 |
\*---------------------------------------------------------------------------*/
FoamFile
{
    version     2.0;
    format      ascii;
    arch        "LSB;label=32;scalar=64";
    class       surfaceScalarField;
    location    "917";
    object      phi;
}
// * * * * * * * * * * * * * * * * * * * * * * * * * * * * * * * * * * * * * //

dimensions      [0 3 -1 0 0 0 0];

oriented        oriented;

internalField   nonuniform List<scalar> 
10972
(
-1.1292678e-11
1.1292678e-11
-1.9299085e-11
8.0064067e-12
-2.2111175e-11
2.8120896e-12
-2.0985254e-11
-1.1259209e-12
-1.691372e-11
-4.071534e-12
-1.1020483e-11
-5.8932366e-12
-4.4256021e-12
-6.5948809e-12
2.0220664e-12
-6.4476685e-12
7.8061461e-12
-5.7840797e-12
1.2703179e-11
-4.8970329e-12
1.6679897e-11
-3.9767177e-12
1.9797039e-11
-3.1171425e-12
2.2159766e-11
-2.3627268e-12
2.3887864e-11
-1.7280975e-12
2.5098291e-11
-1.2104272e-12
2.5896479e-11
-7.9818828e-13
2.6372857e-11
-4.7637803e-13
2.6602326e-11
-2.2946885e-13
2.6645244e-11
-4.2918282e-14
2.654934e-11
9.5904127e-14
2.6351978e-11
1.9736171e-13
2.6081909e-11
2.7006921e-13
2.5760829e-11
3.2108013e-13
2.5405005e-11
3.5582387e-13
2.5026615e-11
3.7838974e-13
2.4634772e-11
3.9184332e-13
2.4236291e-11
3.9848076e-13
2.3836268e-11
4.0002382e-13
2.34385e-11
3.9776784e-13
2.3045808e-11
3.9269196e-13
2.2660267e-11
3.8554057e-13
2.2283384e-11
3.7688299e-13
2.1916227e-11
3.671572e-13
2.1559525e-11
3.5670176e-13
2.1213746e-11
3.4577932e-13
2.0879152e-11
3.3459407e-13
2.0555847e-11
3.2330481e-13
2.0243812e-11
3.1203475e-13
1.9942933e-11
3.0087906e-13
1.9653023e-11
2.8991072e-13
1.9373838e-11
2.7918495e-13
1.9105095e-11
2.6874287e-13
1.884648e-11
2.5861422e-13
1.8597661e-11
2.4881966e-13
1.8358288e-11
2.3937255e-13
1.8128008e-11
2.3028042e-13
1.7906462e-11
2.215461e-13
1.7693293e-11
2.1316871e-13
1.7488149e-11
2.0514445e-13
1.7290681e-11
1.9746718e-13
1.7100552e-11
1.9012901e-13
1.6917432e-11
1.8312066e-13
1.6741e-11
1.7643187e-13
1.6570948e-11
1.7005164e-13
1.640698e-11
1.639685e-13
1.6248809e-11
1.5817067e-13
1.6096163e-11
1.5264625e-13
1.5948779e-11
1.4738333e-13
1.5806409e-11
1.423701e-13
1.5668814e-11
1.3759491e-13
1.5535768e-11
1.3304637e-13
1.5407055e-11
1.2871337e-13
1.528247e-11
1.2458514e-13
1.5161818e-11
1.2065126e-13
1.5044917e-11
1.169017e-13
1.493159e-11
1.1332681e-13
1.4821672e-11
1.0991734e-13
1.4715008e-11
1.0666444e-13
1.4611448e-11
1.0355968e-13
1.4510853e-11
1.0059499e-13
1.4413091e-11
9.776271e-14
1.4318035e-11
9.5055564e-14
1.4225568e-11
9.2466636e-14
1.4135579e-11
8.998937e-14
1.4047962e-11
8.7617555e-14
1.3962616e-11
8.5345315e-14
1.3879449e-11
8.3167094e-14
1.3798372e-11
8.107764e-14
1.37193e-11
7.9071998e-14
1.3642154e-11
7.714549e-14
1.356686e-11
7.5293706e-14
1.3493348e-11
7.3512491e-14
1.342155e-11
7.1797931e-14
1.3351404e-11
7.014634e-14
1.3282849e-11
6.8554252e-14
1.3215831e-11
6.7018405e-14
1.3150295e-11
6.5535735e-14
1.3086192e-11
6.410336e-14
1.3023473e-11
6.2718574e-14
1.2962094e-11
6.1378836e-14
1.2902013e-11
6.0081761e-14
1.2843188e-11
5.882511e-14
1.2785581e-11
5.7606783e-14
1.2729156e-11
5.6424811e-14
1.2673879e-11
5.5277347e-14
1.2619716e-11
5.4162661e-14
1.2566637e-11
5.3079131e-14
1.2514612e-11
5.2025238e-14
1.2463612e-11
5.0999557e-14
1.2413611e-11
5.0000758e-14
1.2364584e-11
4.9027591e-14
1.2316505e-11
4.8078889e-14
1.2269351e-11
4.7153558e-14
1.2223101e-11
4.6250574e-14
1.2177732e-11
4.5368981e-14
1.2133224e-11
4.4507882e-14
1.2089557e-11
4.3666439e-14
1.2046713e-11
4.2843867e-14
1.2004674e-11
4.2039432e-14
1.1963422e-11
4.1252448e-14
1.1922939e-11
4.0482272e-14
1.1883211e-11
3.9728302e-14
1.1844221e-11
3.8989976e-14
1.1805954e-11
3.8266766e-14
1.1768396e-11
3.755818e-14
1.1731532e-11
3.6863755e-14
1.1695349e-11
3.618306e-14
1.1659834e-11
3.5515687e-14
1.1624972e-11
3.4861258e-14
1.1590753e-11
3.4219416e-14
1.1557163e-11
3.3589826e-14
1.1524191e-11
3.2972175e-14
1.1491825e-11
3.2366168e-14
1.1460053e-11
3.1771528e-14
1.1428865e-11
3.1187995e-14
1.139825e-11
3.0615324e-14
1.1368197e-11
3.0053285e-14
1.1338695e-11
2.9501661e-14
1.1309735e-11
2.8960248e-14
1.1281306e-11
2.8428852e-14
1.1253399e-11
2.7907292e-14
1.1226003e-11
2.7395396e-14
1.119911e-11
2.6893003e-14
1.117271e-11
2.6399959e-14
1.1146794e-11
2.5916119e-14
1.1121353e-11
2.5441348e-14
1.1096377e-11
2.4975515e-14
1.1071859e-11
2.4518499e-14
1.1047789e-11
2.4070184e-14
1.1024158e-11
2.3630462e-14
1.1000959e-11
2.3199229e-14
1.0978183e-11
2.2776388e-14
1.0955821e-11
2.236185e-14
1.0933865e-11
2.1955527e-14
1.0912308e-11
2.1557341e-14
1.0891141e-11
2.1167215e-14
1.0870356e-11
2.0785082e-14
1.0849945e-11
2.0410876e-14
1.08299e-11
2.0044539e-14
1.0810214e-11
1.9686016e-14
1.0790879e-11
1.9335261e-14
1.0771887e-11
1.899223e-14
1.075323e-11
1.8656886e-14
1.0734901e-11
1.8329197e-14
1.0716891e-11
1.8009138e-14
1.0699195e-11
1.7696689e-14
1.0681803e-11
1.7391838e-14
1.0664708e-11
1.7094577e-14
1.0647904e-11
1.6804908e-14
1.0631381e-11
1.6522838e-14
1.0615132e-11
1.6248381e-14
1.0599151e-11
1.5981562e-14
1.0583428e-11
1.5722413e-14
1.0567957e-11
1.5470973e-14
1.055273e-11
1.5227293e-14
1.0537739e-11
1.4991433e-14
1.0522975e-11
1.4763463e-14
1.0508432e-11
1.4543464e-14
1.04941e-11
1.4331529e-14
1.0479972e-11
1.4127763e-14
1.046604e-11
1.3932284e-14
1.0452295e-11
1.3745224e-14
1.0438728e-11
1.3566728e-14
1.0425331e-11
1.3396957e-14
1.0412095e-11
1.3236086e-14
1.0399011e-11
1.3084307e-14
1.0386069e-11
1.2941828e-14
1.037326e-11
1.2808874e-14
1.0360575e-11
1.2685686e-14
1.0348002e-11
1.2572522e-14
1.0335532e-11
1.2469656e-14
1.0323155e-11
1.2377378e-14
1.0310859e-11
1.2295987e-14
1.0298633e-11
1.2225798e-14
1.0286466e-11
1.216713e-14
1.0274346e-11
1.2120305e-14
1.026226e-11
1.2085646e-14
1.0250197e-11
1.2063478e-14
1.0238143e-11
1.2054125e-14
1.0226085e-11
1.2057969e-14
1.0214009e-11
1.2075434e-14
1.0201902e-11
1.2107544e-14
1.0189747e-11
1.2155084e-14
1.0177522e-11
1.2224645e-14
1.0165209e-11
1.2313051e-14
1.0152727e-11
1.2482366e-14
1.0140104e-11
1.2622976e-14
1.0126651e-11
1.3452939e-14
1.0113747e-11
1.2903309e-14
2.2834201e-14
-1.0388371e-11
2.1681049e-11
-9.6826625e-12
7.3006981e-12
-3.0342357e-12
-3.8363372e-12
5.6240983e-12
-9.7842549e-12
1.4972026e-11
-1.3419462e-11
2.4171172e-11
-1.5092382e-11
3.2692066e-11
-1.5115775e-11
4.0290636e-11
-1.4046239e-11
4.6899562e-11
-1.2393005e-11
5.2524198e-11
-1.0521669e-11
5.7210901e-11
-8.6634209e-12
6.1038434e-11
-6.9446749e-12
6.4099016e-11
-5.423309e-12
6.6487229e-11
-4.1163107e-12
6.8293907e-11
-3.0171053e-12
6.9602982e-11
-2.1072631e-12
7.0490271e-11
-1.363667e-12
7.1023281e-11
-7.6247872e-13
7.1261492e-11
-2.8112995e-13
7.1256636e-11
1.0076076e-13
7.1053166e-11
4.0083172e-13
7.0688977e-11
6.342578e-13
7.019633e-11
8.1372737e-13
6.9602477e-11
9.4967708e-13
6.893024e-11
1.0506267e-12
6.8198601e-11
1.1234821e-12
6.7423265e-11
1.1738163e-12
6.6617168e-11
1.206121e-12
6.5790919e-11
1.2240174e-12
6.4953183e-11
1.2304276e-12
6.411101e-11
1.2277132e-12
6.3270106e-11
1.2177873e-12
6.2435061e-11
1.2022026e-12
6.160954e-11
1.1822225e-12
6.0796443e-11
1.1588763e-12
5.9998033e-11
1.1330042e-12
5.9216046e-11
1.1052921e-12
5.845178e-11
1.0763003e-12
5.7706173e-11
1.0464858e-12
5.6979863e-11
1.0162206e-12
5.6273241e-11
9.8580691e-13
5.5586495e-11
9.5548884e-13
5.4919647e-11
9.254625e-13
5.4272583e-11
8.9588405e-13
5.3645079e-11
8.6687649e-13
5.3036824e-11
8.3853517e-13
5.2447438e-11
8.1093246e-13
5.1876485e-11
7.8412161e-13
5.1323489e-11
7.5814e-13
5.0787945e-11
7.3301186e-13
5.0269323e-11
7.0875056e-13
4.9767083e-11
6.8536051e-13
4.9280676e-11
6.6283884e-13
4.8809551e-11
6.4117673e-13
4.8353159e-11
6.2036056e-13
4.7910957e-11
6.0037294e-13
4.748241e-11
5.8119349e-13
4.7066993e-11
5.6279954e-13
4.6664197e-11
5.4516674e-13
4.6273522e-11
5.2826952e-13
4.5894487e-11
5.1208153e-13
4.5526624e-11
4.9657594e-13
4.5169484e-11
4.8172577e-13
4.4822631e-11
4.6750409e-13
4.4485648e-11
4.5388422e-13
4.4158135e-11
4.408399e-13
4.3839707e-11
4.2834538e-13
4.3529996e-11
4.1637555e-13
4.322865e-11
4.04906e-13
4.2935332e-11
3.9391308e-13
4.2649721e-11
3.8337393e-13
4.237151e-11
3.7326654e-13
4.2100406e-11
3.6356973e-13
4.1836133e-11
3.5426317e-13
4.1578423e-11
3.453274e-13
4.1327024e-11
3.3674378e-13
4.1081697e-11
3.2849454e-13
4.0842212e-11
3.205627e-13
4.0608352e-11
3.129321e-13
4.037991e-11
3.0558736e-13
4.015669e-11
2.9851385e-13
3.9938505e-11
2.9169768e-13
3.9725177e-11
2.8512565e-13
3.9516538e-11
2.7878528e-13
3.9312427e-11
2.7266471e-13
3.9112693e-11
2.6675272e-13
3.891719e-11
2.610387e-13
3.8725781e-11
2.5551261e-13
3.8538335e-11
2.5016495e-13
3.8354727e-11
2.4498676e-13
3.8174839e-11
2.3996959e-13
3.7998558e-11
2.3510543e-13
3.7825779e-11
2.3038675e-13
3.7656397e-11
2.2580645e-13
3.7490316e-11
2.2135782e-13
3.7327445e-11
2.1703457e-13
3.7167693e-11
2.1283074e-13
3.7010977e-11
2.0874073e-13
3.6857218e-11
2.0475929e-13
3.6706337e-11
2.0088146e-13
3.6558262e-11
1.9710257e-13
3.6412923e-11
1.9341823e-13
3.6270252e-11
1.8982434e-13
3.6130185e-11
1.8631701e-13
3.5992662e-11
1.8289259e-13
3.5857622e-11
1.7954768e-13
3.5725009e-11
1.7627904e-13
3.559477e-11
1.7308367e-13
3.546685e-11
1.6995873e-13
3.5341201e-11
1.6690154e-13
3.5217774e-11
1.6390961e-13
3.5096522e-11
1.6098058e-13
3.4977399e-11
1.5811225e-13
3.4860364e-11
1.5530255e-13
3.4745372e-11
1.5254951e-13
3.4632385e-11
1.4985132e-13
3.4521362e-11
1.4720625e-13
3.4412265e-11
1.4461269e-13
3.4305057e-11
1.4206912e-13
3.4199702e-11
1.395741e-13
3.4096166e-11
1.371263e-13
3.3994413e-11
1.3472444e-13
3.3894412e-11
1.3236735e-13
3.379613e-11
1.300539e-13
3.3699535e-11
1.2778304e-13
3.3604596e-11
1.2555377e-13
3.3511284e-11
1.2336515e-13
3.341957e-11
1.2121631e-13
3.3329424e-11
1.191064e-13
3.3240818e-11
1.1703465e-13
3.3153725e-11
1.150003e-13
3.3068117e-11
1.1300267e-13
3.2983969e-11
1.1104107e-13
3.2901254e-11
1.091149e-13
3.2819947e-11
1.0722354e-13
3.2740022e-11
1.0536645e-13
3.2661454e-11
1.035431e-13
3.258422e-11
1.0175297e-13
3.2508295e-11
9.9995604e-14
3.2433654e-11
9.8270544e-14
3.2360276e-11
9.6577369e-14
3.2288137e-11
9.4915678e-14
3.2217214e-11
9.3285095e-14
3.2147484e-11
9.1685264e-14
3.2078926e-11
9.0115852e-14
3.2011516e-11
8.8576545e-14
3.1945234e-11
8.7067052e-14
3.1880058e-11
8.5587099e-14
3.1815966e-11
8.4136435e-14
3.1752937e-11
8.2714827e-14
3.1690951e-11
8.1322064e-14
3.1629985e-11
7.9957952e-14
3.1570019e-11
7.862232e-14
3.1511034e-11
7.7315017e-14
3.1453007e-11
7.6035912e-14
3.1395919e-11
7.4784897e-14
3.1339749e-11
7.3561887e-14
3.1284476e-11
7.2366818e-14
3.1230082e-11
7.1199652e-14
3.1176544e-11
7.0060376e-14
3.1123844e-11
6.8949001e-14
3.107196e-11
6.7865567e-14
3.1020872e-11
6.6810144e-14
3.097056e-11
6.5782829e-14
3.0921004e-11
6.4783753e-14
3.0872182e-11
6.381308e-14
3.0824074e-11
6.2871008e-14
3.077666e-11
6.1957773e-14
3.0729918e-11
6.1073649e-14
3.0683827e-11
6.0218952e-14
3.0638365e-11
5.9394041e-14
3.0593511e-11
5.8599318e-14
3.0549242e-11
5.7835235e-14
3.0505537e-11
5.7102293e-14
3.0462372e-11
5.6401044e-14
3.0419724e-11
5.5732096e-14
3.037757e-11
5.5096108e-14
3.0335885e-11
5.4493801e-14
3.0294645e-11
5.392595e-14
3.0253824e-11
5.3393389e-14
3.0213397e-11
5.2897007e-14
3.0173336e-11
5.2437749e-14
3.0133616e-11
5.2016606e-14
3.0094207e-11
5.1634614e-14
3.0055081e-11
5.129284e-14
3.0016209e-11
5.0992372e-14
2.9977561e-11
5.0734303e-14
2.9939104e-11
5.0519725e-14
2.9900809e-11
5.0349716e-14
2.9862641e-11
5.0225426e-14
2.9824569e-11
5.0148032e-14
2.9786557e-11
5.0119659e-14
2.974857e-11
5.0141902e-14
2.9710569e-11
5.0225706e-14
2.9672517e-11
5.0364649e-14
2.9634344e-11
5.065536e-14
2.9596071e-11
5.0896595e-14
2.9557338e-11
5.2185992e-14
2.9519001e-11
5.1240183e-14
6.488409e-14
3.3266021e-11
-1.1584971e-11
5.4008188e-11
-1.3441469e-11
6.7121463e-11
-1.6949612e-11
7.6805307e-11
-1.9468099e-11
8.3921259e-11
-2.0535414e-11
8.9156626e-11
-2.0327749e-11
9.3146665e-11
-1.9105815e-11
9.6313242e-11
-1.7212816e-11
9.8905033e-11
-1.4984796e-11
1.0106298e-10
-1.2679612e-11
1.0286567e-10
-1.0466117e-11
1.0435951e-10
-8.4385174e-12
1.0557466e-10
-6.6384548e-12
1.0653323e-10
-5.0748846e-12
1.0725398e-10
-3.7378469e-12
1.077544e-10
-2.6076875e-12
1.0805169e-10
-1.6609562e-12
1.0816312e-10
-8.7390882e-13
1.0810654e-10
-2.2454867e-13
1.0789935e-10
3.0795295e-13
1.0755731e-10
7.428684e-13
1.0709527e-10
1.0962962e-12
1.0652765e-10
1.3813501e-12
1.058683e-10
1.6090203e-12
1.0513035e-10
1.7885767e-12
1.0432602e-10
1.9278157e-12
1.0346656e-10
2.0332818e-12
1.025622e-10
2.1104735e-12
1.016222e-10
2.1640172e-12
1.0065482e-10
2.1978115e-12
9.9667384e-11
2.215148e-12
9.8666362e-11
2.2188102e-12
9.7657407e-11
2.2111567e-12
9.6645441e-11
2.1941885e-12
9.5634712e-11
2.1696055e-12
9.4628863e-11
2.1388531e-12
9.3630995e-11
2.10316e-12
9.2643724e-11
2.0635714e-12
9.1669235e-11
2.0209751e-12
9.0709331e-11
1.9761245e-12
8.976548e-11
1.9296579e-12
8.8838854e-11
1.8821148e-12
8.7930367e-11
1.8339495e-12
8.7040708e-11
1.7855432e-12
8.6170371e-11
1.737214e-12
8.531968e-11
1.6892261e-12
8.4488815e-11
1.6417968e-12
8.3677833e-11
1.5951036e-12
8.2886684e-11
1.5492894e-12
8.2115228e-11
1.5044675e-12
8.1363253e-11
1.4607261e-12
8.0630481e-11
1.4181317e-12
7.9916588e-11
1.3767323e-12
7.9221204e-11
1.3365604e-12
7.854393e-11
1.2976353e-12
7.7884337e-11
1.2599651e-12
7.7241982e-11
1.2235485e-12
7.6616405e-11
1.1883766e-12
7.6007138e-11
1.1544339e-12
7.5413708e-11
1.1216998e-12
7.483564e-11
1.0901493e-12
7.4272462e-11
1.0597542e-12
7.3723704e-11
1.0304837e-12
7.3188903e-11
1.0023048e-12
7.2667604e-11
9.7518314e-13
7.2159361e-11
9.4908352e-13
7.1663736e-11
9.2397001e-13
7.1180305e-11
8.9980645e-13
7.0708655e-11
8.7655671e-13
7.0248383e-11
8.5418493e-13
6.9799101e-11
8.3265568e-13
6.9360433e-11
8.1193414e-13
6.8932017e-11
7.9198622e-13
6.8513501e-11
7.7277867e-13
6.810455e-11
7.5427915e-13
6.7704837e-11
7.364563e-13
6.7314052e-11
7.1927977e-13
6.6931894e-11
7.0272027e-13
6.6558077e-11
6.8674958e-13
6.6192324e-11
6.7134056e-13
6.583437e-11
6.5646716e-13
6.5483964e-11
6.4210439e-13
6.5140861e-11
6.2822833e-13
6.480483e-11
6.148161e-13
6.4475649e-11
6.0184586e-13
6.4153105e-11
5.8929676e-13
6.3836995e-11
5.7714892e-13
6.3527124e-11
5.6538344e-13
6.3223306e-11
5.539823e-13
6.2925365e-11
5.4292839e-13
6.2633129e-11
5.3220544e-13
6.2346436e-11
5.2179802e-13
6.2065132e-11
5.1169147e-13
6.1789066e-11
5.0187192e-13
6.1518098e-11
4.923262e-13
6.1252091e-11
4.8304186e-13
6.0990914e-11
4.740071e-13
6.0734444e-11
4.6521075e-13
6.0482561e-11
4.5664228e-13
6.0235151e-11
4.482917e-13
5.9992104e-11
4.4014959e-13
5.9753315e-11
4.3220705e-13
5.9518684e-11
4.2445568e-13
5.9288113e-11
4.1688754e-13
5.9061511e-11
4.0949516e-13
5.8838787e-11
4.0227147e-13
5.8619856e-11
3.9520982e-13
5.8404636e-11
3.8830393e-13
5.8193047e-11
3.8154789e-13
5.7985012e-11
3.7493613e-13
5.7780458e-11
3.6846338e-13
5.7579314e-11
3.621247e-13
5.7381511e-11
3.5591542e-13
5.7186982e-11
3.4983116e-13
5.6995664e-11
3.4386777e-13
5.6807494e-11
3.3802135e-13
5.6622412e-11
3.3228823e-13
5.644036e-11
3.2666496e-13
5.6261281e-11
3.2114827e-13
5.608512e-11
3.1573509e-13
5.5911824e-11
3.1042251e-13
5.574134e-11
3.0520783e-13
5.5573619e-11
3.0008845e-13
5.5408611e-11
2.9506195e-13
5.5246268e-11
2.9012605e-13
5.5086543e-11
2.8527858e-13
5.4929391e-11
2.805175e-13
5.4774766e-11
2.7584089e-13
5.4622626e-11
2.7124693e-13
5.4472927e-11
2.667339e-13
5.4325627e-11
2.6230017e-13
5.4180685e-11
2.5794422e-13
5.4038062e-11
2.5366458e-13
5.3897717e-11
2.4945988e-13
5.3759611e-11
2.4532883e-13
5.3623708e-11
2.412702e-13
5.3489968e-11
2.3728281e-13
5.3358355e-11
2.3336558e-13
5.3228833e-11
2.2951745e-13
5.3101367e-11
2.2573743e-13
5.2975919e-11
2.2202461e-13
5.2852457e-11
2.1837809e-13
5.2730945e-11
2.1479705e-13
5.261135e-11
2.112807e-13
5.2493637e-11
2.078283e-13
5.2377775e-11
2.0443916e-13
5.2263729e-11
2.0111263e-13
5.2151468e-11
1.978481e-13
5.2040959e-11
1.94645e-13
5.1932171e-11
1.9150282e-13
5.1825072e-11
1.8842107e-13
5.1719631e-11
1.8539931e-13
5.1615816e-11
1.8243715e-13
5.1513597e-11
1.7953422e-13
5.1412943e-11
1.7669022e-13
5.1313823e-11
1.7390487e-13
5.1216207e-11
1.7117795e-13
5.1120064e-11
1.6850928e-13
5.1025365e-11
1.6589874e-13
5.0932079e-11
1.6334624e-13
5.0840177e-11
1.6085176e-13
5.0749627e-11
1.5841531e-13
5.06604e-11
1.5603699e-13
5.0572466e-11
1.5371693e-13
5.0485794e-11
1.5145533e-13
5.0400355e-11
1.4925246e-13
5.0316117e-11
1.4710866e-13
5.0233051e-11
1.4502433e-13
5.0151125e-11
1.4299996e-13
5.0070307e-11
1.4103611e-13
4.9990568e-11
1.3913341e-13
4.9911875e-11
1.3729262e-13
4.9834195e-11
1.3551454e-13
4.9757498e-11
1.338001e-13
4.9681748e-11
1.3215033e-13
4.9606914e-11
1.3056634e-13
4.9532961e-11
1.2904938e-13
4.9459854e-11
1.2760079e-13
4.9387558e-11
1.2622203e-13
4.9316037e-11
1.2491468e-13
4.9245253e-11
1.2368043e-13
4.917517e-11
1.2252106e-13
4.9105748e-11
1.214385e-13
4.9036948e-11
1.2043472e-13
4.8968729e-11
1.1951179e-13
4.890105e-11
1.1867184e-13
4.8833867e-11
1.1791701e-13
4.8767137e-11
1.1724942e-13
4.8700816e-11
1.1667117e-13
4.8634857e-11
1.1618433e-13
4.8569214e-11
1.1579084e-13
4.850384e-11
1.1549351e-13
4.8438689e-11
1.1529356e-13
4.8373711e-11
1.1520295e-13
4.830887e-11
1.1520604e-13
4.8244111e-11
1.1541406e-13
4.8179482e-11
1.1552561e-13
4.8114814e-11
1.1685424e-13
4.8050981e-11
1.1507324e-13
1.2857193e-13
1.9108462e-10
-2.7500935e-12
1.8512973e-10
-7.4865802e-12
1.7947132e-10
-1.12912e-11
1.7420787e-10
-1.4204644e-11
1.6951938e-10
-1.5846932e-11
1.6546502e-10
-1.627338e-11
1.6211413e-10
-1.5754928e-11
1.5947893e-10
-1.4577613e-11
1.5749369e-10
-1.2999563e-11
1.5604883e-10
-1.123475e-11
1.5502325e-10
-9.4405337e-12
1.543033e-10
-7.7185742e-12
1.5379143e-10
-6.1265849e-12
1.5340862e-10
-4.6920672e-12
1.5309376e-10
-3.4229872e-12
1.5280136e-10
-2.3152913e-12
1.5249857e-10
-1.3581678e-12
1.5216222e-10
-5.3755925e-13
1.5177576e-10
1.6191309e-13
1.5132901e-10
7.547065e-13
1.5081803e-10
1.2538419e-12
1.502427e-10
1.6716252e-12
1.4960478e-10
2.0192767e-12
1.4890718e-10
2.3066156e-12
1.4815366e-10
2.542101e-12
1.4734848e-10
2.7329961e-12
1.4649623e-10
2.8855293e-12
1.4560166e-10
3.0050405e-12
1.4466957e-10
3.0961141e-12
1.4370468e-10
3.1626962e-12
1.4271164e-10
3.2081945e-12
1.4169488e-10
3.2355609e-12
1.4065868e-10
3.2473611e-12
1.3960704e-10
3.2458312e-12
1.3854372e-10
3.2329249e-12
1.3747222e-10
3.2103524e-12
1.3639577e-10
3.179613e-12
1.3531732e-10
3.1420223e-12
1.3423956e-10
3.0987346e-12
1.3316492e-10
3.0507629e-12
1.3209558e-10
2.9989955e-12
1.3103348e-10
2.9442101e-12
1.2998035e-10
2.8870869e-12
1.2893767e-10
2.8282191e-12
1.2790676e-10
2.768123e-12
1.2688874e-10
2.7072463e-12
1.2588456e-10
2.6459759e-12
1.2489502e-10
2.5846445e-12
1.2392077e-10
2.5235369e-12
1.2296235e-10
2.4628955e-12
1.2202015e-10
2.4029248e-12
1.2109448e-10
2.343796e-12
1.2018556e-10
2.2856509e-12
1.1929352e-10
2.2286054e-12
1.184184e-10
2.1727528e-12
1.175602e-10
2.118166e-12
1.1671885e-10
2.064901e-12
1.1589423e-10
2.0129982e-12
1.1508618e-10
1.9624849e-12
1.142945e-10
1.9133771e-12
1.1351897e-10
1.865681e-12
1.1275933e-10
1.8193942e-12
1.120153e-10
1.7745073e-12
1.112866e-10
1.7310049e-12
1.1057292e-10
1.6888664e-12
1.0987394e-10
1.6480672e-12
1.0918933e-10
1.6085791e-12
1.0851876e-10
1.5703712e-12
1.0786191e-10
1.5334105e-12
1.0721843e-10
1.4976622e-12
1.06588e-10
1.4630903e-12
1.0597027e-10
1.4296582e-12
1.0536493e-10
1.3973284e-12
1.0477165e-10
1.3660635e-12
1.041901e-10
1.3358259e-12
1.0361998e-10
1.3065785e-12
1.0306097e-10
1.2782844e-12
1.0251279e-10
1.2509074e-12
1.0197512e-10
1.2244118e-12
1.014477e-10
1.1987628e-12
1.0093024e-10
1.1739265e-12
1.0042248e-10
1.1498699e-12
9.9924143e-11
1.126561e-12
9.9434991e-11
1.1039687e-12
9.8954774e-11
1.0820632e-12
9.8483255e-11
1.0608154e-12
9.8020206e-11
1.0401975e-12
9.7565407e-11
1.0201829e-12
9.7118644e-11
1.0007457e-12
9.6679711e-11
9.8186127e-13
9.624841e-11
9.6350604e-13
9.5824551e-11
9.4565738e-13
9.5407948e-11
9.2829369e-13
9.4998426e-11
9.1139433e-13
9.4595813e-11
8.949396e-13
9.4199944e-11
8.7891075e-13
9.3810661e-11
8.6328988e-13
9.3427812e-11
8.4805998e-13
9.3051249e-11
8.3320486e-13
9.2680832e-11
8.1870914e-13
9.2316423e-11
8.0455819e-13
9.1957892e-11
7.9073815e-13
9.1605112e-11
7.7723584e-13
9.1257961e-11
7.6403878e-13
9.0916321e-11
7.5113512e-13
9.0580078e-11
7.3851365e-13
9.0249125e-11
7.2616376e-13
8.9923353e-11
7.1407537e-13
8.9602662e-11
7.0223899e-13
8.9286953e-11
6.9064559e-13
8.8976129e-11
6.7928666e-13
8.86701e-11
6.6815415e-13
8.8368775e-11
6.5724045e-13
8.8072068e-11
6.4653836e-13
8.7779894e-11
6.3604108e-13
8.7492173e-11
6.2574219e-13
8.7208826e-11
6.1563561e-13
8.6929775e-11
6.0571562e-13
8.6654947e-11
5.9597678e-13
8.6384268e-11
5.86414e-13
8.6117668e-11
5.7702243e-13
8.5855078e-11
5.677975e-13
8.5596432e-11
5.587349e-13
8.5341663e-11
5.4983056e-13
8.5090709e-11
5.4108062e-13
8.4843506e-11
5.3248144e-13
8.4599994e-11
5.2402957e-13
8.4360113e-11
5.1572177e-13
8.4123805e-11
5.0755495e-13
8.3891013e-11
4.995262e-13
8.366168e-11
4.9163277e-13
8.3435752e-11
4.8387205e-13
8.3213175e-11
4.7624157e-13
8.2993896e-11
4.68739e-13
8.2777863e-11
4.6136212e-13
8.2565024e-11
4.5410885e-13
8.235533e-11
4.469772e-13
8.214873e-11
4.3996529e-13
8.1945176e-11
4.3307136e-13
8.174462e-11
4.2629371e-13
8.1547014e-11
4.1963075e-13
8.1352311e-11
4.1308099e-13
8.1160465e-11
4.0664301e-13
8.097143e-11
4.0031546e-13
8.0785161e-11
3.9409709e-13
8.0601614e-11
3.8798671e-13
8.0420743e-11
3.819832e-13
8.0242506e-11
3.7608553e-13
8.0066858e-11
3.7029272e-13
7.9893757e-11
3.6460388e-13
7.972316e-11
3.5901817e-13
7.9555025e-11
3.5353483e-13
7.9389309e-11
3.4815316e-13
7.922597e-11
3.4287255e-13
7.9064968e-11
3.3769244e-13
7.8906261e-11
3.3261234e-13
7.8749807e-11
3.2763185e-13
7.8595565e-11
3.2275064e-13
7.8443496e-11
3.1796845e-13
7.8293557e-11
3.132851e-13
7.8145708e-11
3.0870051e-13
7.7999909e-11
3.0421466e-13
7.7856118e-11
2.9982765e-13
7.7714295e-11
2.9553964e-13
7.75744e-11
2.9135093e-13
7.743639e-11
2.8726188e-13
7.7300226e-11
2.8327299e-13
7.7165866e-11
2.7938487e-13
7.7033267e-11
2.7559823e-13
7.6902389e-11
2.7191394e-13
7.677319e-11
2.6833297e-13
7.6645626e-11
2.6485645e-13
7.6519655e-11
2.6148566e-13
7.6395233e-11
2.5822201e-13
7.6272316e-11
2.550671e-13
7.615086e-11
2.5202268e-13
7.6030819e-11
2.4909068e-13
7.5912146e-11
2.4627322e-13
7.5794796e-11
2.4357258e-13
7.5678719e-11
2.4099127e-13
7.5563868e-11
2.3853194e-13
7.5450191e-11
2.3619747e-13
7.5337639e-11
2.3399088e-13
7.5226158e-11
2.3191537e-13
7.5115696e-11
2.2997428e-13
7.5006197e-11
2.2817104e-13
7.4897605e-11
2.2650914e-13
7.4789862e-11
2.2499207e-13
7.468291e-11
2.2362318e-13
7.4576689e-11
2.224057e-13
7.4471137e-11
2.2134231e-13
7.4366195e-11
2.2043612e-13
7.4261801e-11
2.196867e-13
7.41579e-11
2.1910429e-13
7.4054448e-11
2.1865843e-13
7.3951398e-11
2.1846341e-13
7.3848814e-11
2.1810947e-13
7.3746614e-11
2.1905462e-13
7.3645474e-11
2.1621284e-13
2.280677e-13
1.9904765e-10
-1.8782386e-12
1.971008e-10
-5.5397355e-12
1.9422696e-10
-8.4173552e-12
1.9070906e-10
-1.0686745e-11
1.870391e-10
-1.2176972e-11
1.8357484e-10
-1.2809125e-11
1.8052167e-10
-1.2701754e-11
1.7797779e-10
-1.2033738e-11
1.7595746e-10
-1.0979231e-11
1.7441714e-10
-9.6944297e-12
1.732836e-10
-8.3069885e-12
1.7247477e-10
-6.9097512e-12
1.7191195e-10
-5.5637598e-12
1.7152562e-10
-4.305742e-12
1.7125773e-10
-3.1550967e-12
1.7106165e-10
-2.1192133e-12
1.7090108e-10
-1.1975912e-12
1.7074822e-10
-3.8470468e-13
1.7058272e-10
3.2741333e-13
1.7039018e-10
9.4724799e-13
1.7016047e-10
1.4835558e-12
1.6988711e-10
1.9449849e-12
1.6956653e-10
2.3398525e-12
1.6919729e-10
2.6758534e-12
1.6877946e-10
2.9599326e-12
1.6831417e-10
3.1982917e-12
1.6780326e-10
3.3964319e-12
1.672491e-10
3.5592089e-12
1.6665431e-10
3.6908974e-12
1.6602175e-10
3.795259e-12
1.6535434e-10
3.8756071e-12
1.6465503e-10
3.9348643e-12
1.6392678e-10
3.9756136e-12
1.6317247e-10
4.0001425e-12
1.6239491e-10
4.0104808e-12
1.6159683e-10
4.0084332e-12
1.6078084e-10
3.9956066e-12
1.5994943e-10
3.9734338e-12
1.5910497e-10
3.9431936e-12
1.582497e-10
3.9060277e-12
1.5738574e-10
3.8629557e-12
1.5651507e-10
3.8148881e-12
1.5563952e-10
3.7626373e-12
1.5476081e-10
3.7069276e-12
1.5388053e-10
3.6484039e-12
1.5300013e-10
3.5876393e-12
1.5212097e-10
3.5251425e-12
1.5124425e-10
3.4613633e-12
1.5037109e-10
3.3966989e-12
1.4950248e-10
3.3314987e-12
1.4863934e-10
3.2660688e-12
1.4778246e-10
3.2006766e-12
1.4693255e-10
3.135554e-12
1.4609026e-10
3.0709015e-12
1.4525612e-10
3.0068913e-12
1.4443062e-10
2.9436696e-12
1.4361416e-10
2.8813602e-12
1.4280709e-10
2.820066e-12
1.420097e-10
2.7598719e-12
1.4122223e-10
2.7008465e-12
1.4044487e-10
2.6430438e-12
1.3967776e-10
2.5865051e-12
1.3892101e-10
2.5312604e-12
1.3817468e-10
2.4773299e-12
1.3743882e-10
2.4247249e-12
1.3671344e-10
2.3734493e-12
1.3599852e-10
2.3235003e-12
1.3529402e-10
2.2748694e-12
1.3459989e-10
2.2275435e-12
1.3391605e-10
2.1815049e-12
1.332424e-10
2.1367329e-12
1.3257886e-10
2.0932036e-12
1.3192529e-10
2.0508908e-12
1.3128159e-10
2.0097663e-12
1.3064762e-10
1.9698004e-12
1.3002323e-10
1.9309622e-12
1.294083e-10
1.8932202e-12
1.2880266e-10
1.856542e-12
1.2820618e-10
1.820895e-12
1.276187e-10
1.7862465e-12
1.2704006e-10
1.7525638e-12
1.2647011e-10
1.7198146e-12
1.2590871e-10
1.6879667e-12
1.2535569e-10
1.6569886e-12
1.248109e-10
1.6268492e-12
1.242742e-10
1.5975182e-12
1.2374543e-10
1.568966e-12
1.2322445e-10
1.5411637e-12
1.2271111e-10
1.5140831e-12
1.2220528e-10
1.4876972e-12
1.217068e-10
1.4619795e-12
1.2121556e-10
1.4369046e-12
1.207314e-10
1.412448e-12
1.2025421e-10
1.388586e-12
1.1978385e-10
1.3652959e-12
1.1932021e-10
1.3425558e-12
1.1886315e-10
1.3203447e-12
1.1841257e-10
1.2986425e-12
1.1796835e-10
1.27743e-12
1.1753037e-10
1.2566887e-12
1.1709852e-10
1.2364011e-12
1.1667271e-10
1.2165503e-12
1.1625283e-10
1.1971203e-12
1.1583877e-10
1.1780958e-12
1.1543044e-10
1.1594623e-12
1.1502775e-10
1.1412058e-12
1.146306e-10
1.1233133e-12
1.1423891e-10
1.1057721e-12
1.1385257e-10
1.0885703e-12
1.1347152e-10
1.0716966e-12
1.1309567e-10
1.0551403e-12
1.1272493e-10
1.0388911e-12
1.1235923e-10
1.0229394e-12
1.119985e-10
1.007276e-12
1.1164265e-10
9.9189215e-13
1.1129161e-10
9.7677971e-13
1.1094531e-10
9.6193081e-13
1.1060369e-10
9.4733808e-13
1.1026667e-10
9.329945e-13
1.0993419e-10
9.1889344e-13
1.0960619e-10
9.0502864e-13
1.0928259e-10
8.9139414e-13
1.0896334e-10
8.7798432e-13
1.0864838e-10
8.6479387e-13
1.0833764e-10
8.5181774e-13
1.0803107e-10
8.3905117e-13
1.0772861e-10
8.2648964e-13
1.074302e-10
8.1412888e-13
1.0713579e-10
8.0196485e-13
1.0684533e-10
7.8999373e-13
1.0655875e-10
7.7821188e-13
1.06276e-10
7.6661587e-13
1.0599704e-10
7.5520246e-13
1.0572181e-10
7.4396858e-13
1.0545026e-10
7.329113e-13
1.0518234e-10
7.2202787e-13
1.0491801e-10
7.1131567e-13
1.046572e-10
7.0077225e-13
1.0439988e-10
6.9039525e-13
1.0414599e-10
6.8018246e-13
1.0389549e-10
6.701318e-13
1.0364832e-10
6.6024129e-13
1.0340446e-10
6.5050906e-13
1.0316384e-10
6.4093335e-13
1.0292643e-10
6.3151252e-13
1.0269217e-10
6.2224501e-13
1.0246102e-10
6.1312936e-13
1.0223294e-10
6.0416422e-13
1.0200789e-10
5.9534832e-13
1.0178581e-10
5.8668049e-13
1.0156667e-10
5.7815965e-13
1.0135042e-10
5.6978481e-13
1.0113702e-10
5.6155509e-13
1.0092642e-10
5.5346967e-13
1.0071858e-10
5.4552787e-13
1.0051347e-10
5.3772906e-13
1.0031103e-10
5.3007273e-13
1.0011122e-10
5.2255849e-13
9.9914001e-11
5.1518602e-13
9.9719331e-11
5.0795512e-13
9.9527166e-11
5.0086571e-13
9.9337463e-11
4.9391783e-13
9.9150179e-11
4.8711163e-13
9.8965271e-11
4.8044738e-13
9.8782697e-11
4.7392551e-13
9.8602412e-11
4.6754657e-13
9.8424374e-11
4.6131126e-13
9.8248538e-11
4.5522043e-13
9.8074861e-11
4.4927512e-13
9.7903299e-11
4.4347652e-13
9.7733806e-11
4.3782599e-13
9.7566337e-11
4.3232511e-13
9.7400847e-11
4.2697565e-13
9.723729e-11
4.2177958e-13
9.7075618e-11
4.167391e-13
9.6915784e-11
4.1185666e-13
9.6757739e-11
4.0713492e-13
9.6601436e-11
4.0257681e-13
9.6446823e-11
3.9818551e-13
9.629385e-11
3.9396449e-13
9.6142464e-11
3.8991745e-13
9.5992613e-11
3.8604838e-13
9.5844243e-11
3.8236153e-13
9.5697297e-11
3.7886138e-13
9.5551718e-11
3.7555265e-13
9.5407449e-11
3.7244021e-13
9.5264429e-11
3.6952903e-13
9.5122597e-11
3.6682411e-13
9.498189e-11
3.6433027e-13
9.4842244e-11
3.6205207e-13
9.4703593e-11
3.5999312e-13
9.4565872e-11
3.5815691e-13
9.4429017e-11
3.5654168e-13
9.4292967e-11
3.5515481e-13
9.415767e-11
3.5395541e-13
9.4023086e-11
3.5304747e-13
9.3889219e-11
3.5197674e-13
9.3756115e-11
3.5215858e-13
9.3623745e-11
3.4858266e-13
3.5771179e-13
1.9944218e-10
-1.4009177e-12
1.9801992e-10
-4.1174728e-12
1.9604498e-10
-6.442415e-12
1.9367318e-10
-8.3149509e-12
1.9112693e-10
-9.6307213e-12
1.8863695e-10
-1.0319138e-11
1.8636596e-10
-1.043077e-11
1.8441083e-10
-1.0078608e-11
1.8281374e-10
-9.3821402e-12
1.8157246e-10
-8.4531457e-12
1.8065508e-10
-7.3896086e-12
1.8001454e-10
-6.2692183e-12
1.7959899e-10
-5.1482052e-12
1.7935799e-10
-4.0647466e-12
1.7924601e-10
-3.0431177e-12
1.7922395e-10
-2.0971455e-12
1.7925946e-10
-1.2331002e-12
1.7932689e-10
-4.521344e-13
1.7940623e-10
2.4807107e-13
1.7948174e-10
8.7174043e-13
1.7954131e-10
1.423977e-12
1.7957603e-10
1.9102712e-12
1.7957958e-10
2.336303e-12
1.7954776e-10
2.7076713e-12
1.79478e-10
3.0296917e-12
1.7936898e-10
3.3073088e-12
1.7922035e-10
3.5450683e-12
1.7903244e-10
3.747114e-12
1.7880614e-10
3.9171997e-12
1.7854268e-10
4.0587137e-12
1.7824358e-10
4.1747089e-12
1.7791051e-10
4.2679329e-12
1.7754527e-10
4.3408577e-12
1.771497e-10
4.3957078e-12
1.767257e-10
4.4344859e-12
1.7627514e-10
4.4589958e-12
1.7579988e-10
4.4708633e-12
1.7530176e-10
4.4715546e-12
1.7478256e-10
4.4623923e-12
1.7424402e-10
4.4445702e-12
1.7368781e-10
4.4191658e-12
1.7311554e-10
4.3871516e-12
1.7252878e-10
4.3494051e-12
1.7192899e-10
4.3067177e-12
1.7131759e-10
4.2598028e-12