/*--------------------------------*- C++ -*----------------------------------*\
| =========                 |                                                 |
| \\      /  F ield         | OpenFOAM: The Open Source CFD Toolbox           |
|  \\    /   O peration     | Version:  2406                                  |
|   \\  /    A nd           | Website:  www.openfoam.com                      |
|    \\/     M anipulation  |                                                 |
\*---------------------------------------------------------------------------*/
FoamFile
{
    version     2.0;
    format      ascii;
    arch        "LSB;label=32;scalar=64";
    class       volVectorField;
    location    "917";
    object      U;
}
// * * * * * * * * * * * * * * * * * * * * * * * * * * * * * * * * * * * * * //

dimensions      [0 1 -1 0 0 0 0];

internalField   nonuniform List<vector> 
5600
(
(-0.012767938 0.011468052 0)
(-0.036910362 0.0077817535 0)
(-0.047870164 0.0042184428 0)
(-0.049051362 0.0013000248 0)
(-0.042591178 -0.0012881313 0)
(-0.031043743 -0.0030834224 0)
(-0.01691894 -0.0038771774 0)
(-0.0024119549 -0.0038874265 0)
(0.011100267 -0.0034064262 0)
(0.022949915 -0.0027319165 0)
(0.032818133 -0.0020590513 0)
(0.040674942 -0.0014640439 0)
(0.046714723 -0.00097380309 0)
(0.051204755 -0.00059172295 0)
(0.054416464 -0.00030778387 0)
(0.056600622 -0.00010598901 0)
(0.057976535 3.0920841e-05 0)
(0.058728259 0.00011897333 0)
(0.059005635 0.00017188435 0)
(0.058927393 0.00020037121 0)
(0.058587538 0.00021245689 0)
(0.058058437 0.00021398221 0)
(0.057395138 0.00020924703 0)
(0.056639081 0.00020115462 0)
(0.055821257 0.00019147911 0)
(0.054964827 0.00018123902 0)
(0.05408712 0.00017099753 0)
(0.053201091 0.00016105304 0)
(0.052316412 0.00015155188 0)
(0.05144028 0.00014255502 0)
(0.050578015 0.00013407767 0)
(0.049733507 0.00012611182 0)
(0.048909547 0.00011863854 0)
(0.048108083 0.00011163432 0)
(0.047330404 0.00010507422 0)
(0.046577291 9.8933363e-05 0)
(0.045849129 9.3187607e-05 0)
(0.045145996 8.7813741e-05 0)
(0.04446773 8.2789558e-05 0)
(0.043813986 7.8093849e-05 0)
(0.043184281 7.3706385e-05 0)
(0.042578024 6.9607892e-05 0)
(0.041994549 6.5780045e-05 0)
(0.041433136 6.2205447e-05 0)
(0.040893025 5.8867621e-05 0)
(0.040373437 5.5750985e-05 0)
(0.03987358 5.2840843e-05 0)
(0.039392661 5.0123347e-05 0)
(0.038929893 4.7585479e-05 0)
(0.0384845 4.5215015e-05 0)
(0.038055721 4.3000491e-05 0)
(0.037642816 4.093117e-05 0)
(0.037245065 3.8997002e-05 0)
(0.036861772 3.7188595e-05 0)
(0.036492268 3.549717e-05 0)
(0.036135906 3.3914537e-05 0)
(0.03579207 3.243305e-05 0)
(0.035460166 3.1045582e-05 0)
(0.035139629 2.9745492e-05 0)
(0.034829919 2.8526592e-05 0)
(0.034530522 2.7383123e-05 0)
(0.034240949 2.6309722e-05 0)
(0.033960735 2.5301404e-05 0)
(0.033689437 2.435353e-05 0)
(0.033426639 2.3461788e-05 0)
(0.033171941 2.2622173e-05 0)
(0.032924968 2.1830963e-05 0)
(0.032685364 2.1084701e-05 0)
(0.032452792 2.0380178e-05 0)
(0.032226932 1.9714415e-05 0)
(0.032007484 1.908465e-05 0)
(0.031794163 1.8488317e-05 0)
(0.0315867 1.7923041e-05 0)
(0.03138484 1.7386616e-05 0)
(0.031188343 1.6876999e-05 0)
(0.030996983 1.6392298e-05 0)
(0.030810545 1.5930757e-05 0)
(0.030628827 1.5490753e-05 0)
(0.030451639 1.5070781e-05 0)
(0.0302788 1.4669449e-05 0)
(0.030110141 1.4285468e-05 0)
(0.029945499 1.3917646e-05 0)
(0.029784724 1.356488e-05 0)
(0.029627673 1.3226149e-05 0)
(0.02947421 1.2900513e-05 0)
(0.029324206 1.2587098e-05 0)
(0.029177541 1.2285101e-05 0)
(0.029034101 1.1993777e-05 0)
(0.028893777 1.1712441e-05 0)
(0.028756467 1.1440458e-05 0)
(0.028622074 1.1177244e-05 0)
(0.028490506 1.092226e-05 0)
(0.028361676 1.0675007e-05 0)
(0.028235501 1.0435027e-05 0)
(0.028111903 1.0201898e-05 0)
(0.027990807 9.9752308e-06 0)
(0.027872143 9.7546657e-06 0)
(0.027755844 9.539873e-06 0)
(0.027641846 9.3305486e-06 0)
(0.027530087 9.1264127e-06 0)
(0.02742051 8.9272082e-06 0)
(0.027313059 8.7326982e-06 0)
(0.027207682 8.5426651e-06 0)
(0.027104327 8.3569089e-06 0)
(0.027002947 8.1752455e-06 0)
(0.026903495 7.9975061e-06 0)
(0.026805926 7.8235352e-06 0)
(0.026710199 7.65319e-06 0)
(0.026616272 7.4863395e-06 0)
(0.026524105 7.3228631e-06 0)
(0.026433662 7.16265e-06 0)
(0.026344905 7.0055983e-06 0)
(0.026257799 6.8516144e-06 0)
(0.02617231 6.7006122e-06 0)
(0.026088405 6.5525124e-06 0)
(0.026006053 6.407242e-06 0)
(0.025925222 6.2647339e-06 0)
(0.025845883 6.1249258e-06 0)
(0.025768007 5.9877607e-06 0)
(0.025691565 5.8531857e-06 0)
(0.02561653 5.7211519e-06 0)
(0.025542875 5.5916141e-06 0)
(0.025470574 5.4645303e-06 0)
(0.025399601 5.3398616e-06 0)
(0.025329932 5.2175718e-06 0)
(0.025261543 5.0976272e-06 0)
(0.025194409 4.9799965e-06 0)
(0.025128508 4.8646502e-06 0)
(0.025063816 4.751561e-06 0)
(0.025000311 4.6407032e-06 0)
(0.024937971 4.5320528e-06 0)
(0.024876775 4.4255871e-06 0)
(0.024816701 4.321285e-06 0)
(0.024757729 4.2191265e-06 0)
(0.024699838 4.1190931e-06 0)
(0.024643008 4.0211669e-06 0)
(0.024587218 3.9253316e-06 0)
(0.02453245 3.8315717e-06 0)
(0.024478683 3.7398728e-06 0)
(0.024425899 3.6502213e-06 0)
(0.024374079 3.5626047e-06 0)
(0.024323205 3.4770116e-06 0)
(0.024273256 3.3934313e-06 0)
(0.024224216 3.3118543e-06 0)
(0.024176067 3.2322721e-06 0)
(0.02412879 3.1546771e-06 0)
(0.024082367 3.0790631e-06 0)
(0.024036781 3.0054246e-06 0)
(0.023992015 2.9337579e-06 0)
(0.023948051 2.8640598e-06 0)
(0.023904872 2.7963292e-06 0)
(0.02386246 2.730566e-06 0)
(0.0238208 2.6667718e-06 0)
(0.023779873 2.6049496e-06 0)
(0.023739663 2.5451044e-06 0)
(0.023700153 2.4872427e-06 0)
(0.023661326 2.4313735e-06 0)
(0.023623165 2.3775073e-06 0)
(0.023585654 2.3256572e-06 0)
(0.023548775 2.2758386e-06 0)
(0.023512513 2.2280695e-06 0)
(0.023476849 2.1823704e-06 0)
(0.023441768 2.138765e-06 0)
(0.023407251 2.0972799e-06 0)
(0.023373283 2.0579452e-06 0)
(0.023339845 2.0207941e-06 0)
(0.023306921 1.9858638e-06 0)
(0.023274492 1.9531954e-06 0)
(0.023242542 1.9228341e-06 0)
(0.023211051 1.8948294e-06 0)
(0.023180003 1.8692357e-06 0)
(0.023149378 1.8461117e-06 0)
(0.023119157 1.8255218e-06 0)
(0.023089322 1.8075351e-06 0)
(0.023059853 1.7922265e-06 0)
(0.02303073 1.7796762e-06 0)
(0.023001933 1.76997e-06 0)
(0.022973441 1.7631993e-06 0)
(0.022945232 1.7594611e-06 0)
(0.022917285 1.758857e-06 0)
(0.022889578 1.7614937e-06 0)
(0.022862086 1.7674812e-06 0)
(0.022834787 1.7769323e-06 0)
(0.022807655 1.7899608e-06 0)
(0.022780667 1.8066803e-06 0)
(0.022753795 1.8272019e-06 0)
(0.022727014 1.851634e-06 0)
(0.022700295 1.8800874e-06 0)
(0.022673612 1.9126778e-06 0)
(0.022646935 1.9495941e-06 0)
(0.022620235 1.9910535e-06 0)
(0.02259348 2.0379805e-06 0)
(0.022566639 2.0907271e-06 0)
(0.022539667 2.1567928e-06 0)
(0.022512541 2.2291129e-06 0)
(0.022485083 2.3860163e-06 0)
(0.022457534 2.4698675e-06 0)
(0.022428283 3.4099476e-06 0)
(0.022401937 2.2088894e-06 0)
(0.022349865 1.5208678e-05 0)
(-0.0155854 0.039625925 0)
(-0.027867088 0.023248868 0)
(-0.015676898 0.0037158763 0)
(0.003318594 -0.0083639583 0)
(0.023588045 -0.016730855 0)
(0.043944864 -0.021449526 0)
(0.063408816 -0.022839759 0)
(0.081189767 -0.021874974 0)
(0.096884739 -0.019547932 0)
(0.11040843 -0.016632423 0)
(0.12181181 -0.013635899 0)
(0.13121866 -0.010829906 0)
(0.13881475 -0.0083436367 0)
(0.1448122 -0.0062218828 0)
(0.14942044 -0.0044600595 0)
(0.15283486 -0.0030279575 0)
(0.15523336 -0.0018844353 0)
(0.15677541 -0.00098571505 0)
(0.15760171 -0.00028953094 0)
(0.15783598 0.00024218801 0)
(0.15758483 0.0006417665 0)
(0.15693855 0.00093689076 0)
(0.1559747 0.0011504261 0)
(0.15475904 0.0013008552 0)
(0.15334676 0.0014028393 0)
(0.15178383 0.001467822 0)
(0.15010838 0.0015046414 0)
(0.14835187 0.0015200908 0)
(0.14654015 0.0015193827 0)
(0.14469437 0.0015065179 0)
(0.14283176 0.0014845724 0)
(0.14096631 0.0014559181 0)
(0.1391093 0.0014223906 0)
(0.13726978 0.0013854156 0)
(0.13545493 0.0013461037 0)
(0.1336704 0.001305322 0)
(0.13192057 0.0012637483 0)
(0.13020874 0.0012219121 0)
(0.12853735 0.0011802259 0)
(0.12690813 0.0011390098 0)
(0.12532217 0.00109851 0)
(0.12378009 0.0010589137 0)
(0.12228212 0.0010203605 0)
(0.12082813 0.00098295202 0)
(0.11941774 0.00094675907 0)
(0.11805034 0.00091182756 0)
(0.11672517 0.00087818341 0)
(0.1154413 0.00084583644 0)
(0.11419772 0.00081478355 0)
(0.11299334 0.00078501141 0)
(0.11182702 0.00075649854 0)
(0.11069756 0.00072921716 0)
(0.10960375 0.0007031346 0)
(0.10854438 0.00067821458 0)
(0.10751822 0.00065441816 0)
(0.10652407 0.0006317046 0)
(0.10556073 0.00061003204 0)
(0.10462702 0.00058935804 0)
(0.10372181 0.00056964006 0)
(0.10284397 0.00055083583 0)
(0.10199242 0.00053290364 0)
(0.1011661 0.00051580257 0)
(0.10036401 0.00049949271 0)
(0.099585157 0.00048393525 0)
(0.098828604 0.00046909266 0)
(0.098093445 0.00045492869 0)
(0.097378812 0.00044140847 0)
(0.09668387 0.00042849854 0)
(0.096007824 0.00041616683 0)
(0.095349911 0.0004043827 0)
(0.094709403 0.0003931169 0)
(0.094085606 0.00038234159 0)
(0.093477858 0.00037203023 0)
(0.092885525 0.00036215765 0)
(0.092308008 0.00035269992 0)
(0.091744732 0.00034363438 0)
(0.091195154 0.00033493954 0)
(0.090658753 0.00032659507 0)
(0.090135036 0.00031858176 0)
(0.089623535 0.00031088142 0)
(0.089123804 0.00030347691 0)
(0.088635418 0.00029635202 0)
(0.088157974 0.00028949149 0)
(0.087691091 0.00028288092 0)
(0.087234403 0.00027650674 0)
(0.086787566 0.00027035617 0)
(0.08635025 0.00026441719 0)
(0.085922143 0.00025867849 0)
(0.085502949 0.00025312942 0)
(0.085092385 0.00024775999 0)
(0.084690182 0.00024256077 0)
(0.084296085 0.00023752295 0)
(0.083909852 0.00023263823 0)
(0.08353125 0.00022789882 0)
(0.08316006 0.00022329742 0)
(0.082796071 0.00021882715 0)
(0.082439084 0.00021448159 0)
(0.082088908 0.00021025471 0)
(0.081745361 0.00020614085 0)
(0.081408269 0.0002021347 0)
(0.081077466 0.0001982313 0)
(0.080752794 0.00019442598 0)
(0.080434101 0.00019071439 0)
(0.080121241 0.00018709244 0)
(0.079814077 0.0001835563 0)
(0.079512474 0.00018010238 0)
(0.079216304 0.00017672733 0)
(0.078925445 0.000173428 0)
(0.078639779 0.00017020144 0)
(0.078359193 0.00016704491 0)
(0.078083576 0.00016395581 0)
(0.077812824 0.00016093174 0)
(0.077546836 0.00015797041 0)
(0.077285513 0.00015506972 0)
(0.07702876 0.00015222767 0)
(0.076776487 0.0001494424 0)
(0.076528605 0.00014671216 0)
(0.076285027 0.00014403532 0)
(0.076045672 0.00014141033 0)
(0.075810457 0.00013883577 0)
(0.075579304 0.00013631027 0)
(0.075352138 0.00013383256 0)
(0.075128883 0.00013140145 0)
(0.074909468 0.00012901583 0)
(0.074693823 0.00012667462 0)
(0.074481877 0.00012437685 0)
(0.074273564 0.00012212158 0)
(0.074068819 0.00011990792 0)
(0.073867576 0.00011773504 0)
(0.073669774 0.00011560217 0)
(0.07347535 0.00011350857 0)
(0.073284244 0.00011145353 0)
(0.073096397 0.00010943641 0)
(0.072911751 0.00010745657 0)
(0.072730248 0.00010551343 0)
(0.072551832 0.00010360644 0)
(0.072376448 0.00010173506 0)
(0.072204042 9.9898808e-05 0)
(0.072034559 9.8097208e-05 0)
(0.071867947 9.6329818e-05 0)
(0.071704154 9.4596221e-05 0)
(0.071543128 9.289602e-05 0)
(0.071384819 9.1228846e-05 0)
(0.071229176 8.959435e-05 0)
(0.07107615 8.7992204e-05 0)
(0.070925692 8.6422104e-05 0)
(0.070777753 8.4883766e-05 0)
(0.070632286 8.3376926e-05 0)
(0.070489241 8.1901344e-05 0)
(0.070348574 8.0456797e-05 0)
(0.070210235 7.9043087e-05 0)
(0.07007418 7.7660035e-05 0)
(0.069940362 7.6307487e-05 0)
(0.069808735 7.4985309e-05 0)
(0.069679253 7.369339e-05 0)
(0.069551871 7.2431646e-05 0)
(0.069426543 7.1200016e-05 0)
(0.069303226 6.9998464e-05 0)
(0.069181873 6.8826983e-05 0)
(0.06906244 6.7685594e-05 0)
(0.068944881 6.6574348e-05 0)
(0.068829153 6.5493325e-05 0)
(0.068715209 6.4442641e-05 0)
(0.068603006 6.3422445e-05 0)
(0.068492496 6.2432922e-05 0)
(0.068383637 6.1474296e-05 0)
(0.06827638 6.0546832e-05 0)
(0.068170682 5.9650838e-05 0)
(0.068066494 5.8786666e-05 0)
(0.067963771 5.7954716e-05 0)
(0.067862464 5.7155438e-05 0)
(0.067762527 5.6389335e-05 0)
(0.067663911 5.5656963e-05 0)
(0.067566566 5.4958939e-05 0)
(0.067470443 5.4295937e-05 0)
(0.06737549 5.3668693e-05 0)
(0.067281656 5.3078009e-05 0)
(0.067188888 5.2524749e-05 0)
(0.067097131 5.2009845e-05 0)
(0.067006332 5.1534292e-05 0)
(0.066916432 5.1099147e-05 0)
(0.066827374 5.0705528e-05 0)
(0.066739098 5.0354602e-05 0)
(0.066651544 5.0047579e-05 0)
(0.066564649 4.97857e-05 0)
(0.066478348 4.9570218e-05 0)
(0.066392576 4.9402386e-05 0)
(0.066307264 4.9283455e-05 0)
(0.066222343 4.9214673e-05 0)
(0.066137742 4.9197446e-05 0)
(0.066053389 4.923333e-05 0)
(0.065969207 4.93256e-05 0)
(0.065885125 4.9477219e-05 0)
(0.065801043 4.9707046e-05 0)
(0.065716945 5.0009564e-05 0)
(0.065632463 5.0549998e-05 0)
(0.065548504 5.1042061e-05 0)
(0.06546108 5.3341223e-05 0)
(0.065385645 5.2399326e-05 0)
(0.065260149 7.7805838e-05 0)
(0.062910547 0.0022032933 0)
(0.10084787 -0.011898688 0)
(0.13470171 -0.026134101 0)
(0.16132725 -0.034854319 0)
(0.17961367 -0.039166473 0)
(0.19251771 -0.040098086 0)
(0.20227794 -0.038383019 0)
(0.20998398 -0.034885636 0)
(0.21623832 -0.030460189 0)
(0.22143125 -0.025767302 0)
(0.22579021 -0.021231913 0)
(0.22943334 -0.017084195 0)
(0.23243094 -0.013424294 0)
(0.23483603 -0.010273281 0)
(0.23669294 -0.0076073338 0)
(0.23804141 -0.0053805102 0)
(0.23891965 -0.0035389389 0)
(0.23936615 -0.0020288114 0)
(0.2394191 -0.00080083214 0)
(0.23912001 0.00019021277 0)
(0.23850543 0.00098523337 0)
(0.23760857 0.0016186482 0)
(0.2364619 0.0021187404 0)
(0.23509702 0.0025087619 0)
(0.23354396 0.0028079969 0)
(0.23183086 0.0030324762 0)
(0.22998377 0.0031955121 0)
(0.2280265 0.003308153 0)
(0.22598062 0.0033795697 0)
(0.22386549 0.0034173736 0)
(0.22169835 0.0034278811 0)
(0.21949444 0.0034163349 0)
(0.21726714 0.0033870866 0)
(0.21502811 0.0033437492 0)
(0.21278747 0.0032893217 0)
(0.21055392 0.0032262932 0)
(0.20833488 0.0031567283 0)
(0.20613665 0.0030823375 0)
(0.20396453 0.0030045362 0)
(0.20182289 0.0029244927 0)
(0.19971533 0.0028431687 0)
(0.19764475 0.0027613529 0)
(0.19561344 0.0026796888 0)
(0.19362316 0.0025986978 0)
(0.1916752 0.0025187993 0)
(0.18977045 0.0024403268 0)
(0.18790946 0.0023635416 0)
(0.18609248 0.0022886449 0)
(0.1843195 0.0022157869 0)
(0.18259032 0.002145076 0)
(0.18090452 0.0020765849 0)
(0.17926157 0.0020103572 0)
(0.17766078 0.0019464125 0)
(0.17610139 0.00188475 0)
(0.17458255 0.0018253529 0)
(0.17310332 0.0017681911 0)
(0.17166275 0.0017132236 0)
(0.17025983 0.0016604014 0)
(0.16889354 0.0016096686 0)
(0.16756282 0.0015609646 0)
(0.16626662 0.001514225 0)
(0.16500391 0.001469383 0)
(0.16377362 0.0014263699 0)
(0.16257474 0.0013851166 0)
(0.16140625 0.0013455537 0)
(0.16026713 0.0013076119 0)
(0.15915643 0.0012712232 0)
(0.15807317 0.0012363204 0)
(0.15701645 0.0012028377 0)
(0.15598534 0.0011707112 0)
(0.15497898 0.0011398787 0)
(0.15399653 0.00111028 0)
(0.15303716 0.0010818569 0)
(0.15210008 0.0010545532 0)
(0.15118454 0.0010283152 0)
(0.15028979 0.0010030911 0)
(0.14941515 0.00097883118 0)
(0.14855993 0.00095548805 0)
(0.14772347 0.00093301634 0)
(0.14690517 0.00091137279 0)
(0.14610441 0.00089051612 0)
(0.14532064 0.00087040705 0)
(0.14455329 0.00085100821 0)
(0.14380184 0.00083228406 0)
(0.1430658 0.00081420089 0)
(0.14234468 0.00079672666 0)
(0.14163801 0.00077983104 0)
(0.14094537 0.00076348526 0)
(0.14026632 0.00074766208 0)
(0.13960048 0.00073233573 0)
(0.13894744 0.00071748183 0)
(0.13830685 0.00070307732 0)
(0.13767836 0.00068910044 0)
(0.13706162 0.00067553061 0)
(0.13645632 0.00066234842 0)
(0.13586214 0.00064953556 0)
(0.1352788 0.00063707474 0)
(0.13470601 0.00062494966 0)
(0.1341435 0.00061314498 0)
(0.13359101 0.00060164623 0)
(0.1330483 0.00059043977 0)
(0.13251513 0.00057951279 0)
(0.13199127 0.00056885318 0)
(0.1314765 0.0005584496 0)
(0.13097061 0.00054829133 0)
(0.13047341 0.00053836831 0)
(0.1299847 0.00052867109 0)
(0.12950428 0.00051919074 0)
(0.12903199 0.00050991891 0)
(0.12856765 0.00050084771 0)
(0.1281111 0.00049196975 0)
(0.12766217 0.00048327807 0)
(0.12722071 0.00047476613 0)
(0.12678657 0.00046642777 0)
(0.1263596 0.00045825722 0)
(0.12593967 0.00045024904 0)
(0.12552664 0.00044239811 0)
(0.12512038 0.00043469962 0)
(0.12472076 0.00042714906 0)
(0.12432766 0.00041974215 0)
(0.12394096 0.00041247491 0)
(0.12356054 0.00040534356 0)
(0.12318629 0.00039834454 0)
(0.1228181 0.00039147451 0)
(0.12245586 0.00038473033 0)
(0.12209946 0.00037810901 0)
(0.12174881 0.00037160776 0)
(0.12140381 0.00036522394 0)
(0.12106434 0.00035895504 0)
(0.12073033 0.00035279872 0)
(0.12040168 0.00034675275 0)
(0.12007829 0.00034081503 0)
(0.11976008 0.00033498357 0)
(0.11944695 0.00032925649 0)
(0.11913882 0.00032363201 0)
(0.11883561 0.00031810846 0)
(0.11853722 0.00031268424 0)
(0.11824359 0.00030735785 0)
(0.11795462 0.00030212786 0)
(0.11767024 0.00029699293 0)
(0.11739037 0.00029195178 0)
(0.11711493 0.00028700323 0)
(0.11684385 0.00028214612 0)
(0.11657704 0.0002773794 0)
(0.11631444 0.00027270206 0)
(0.11605597 0.00026811315 0)
(0.11580156 0.00026361181 0)
(0.11555113 0.00025919719 0)
(0.11530462 0.00025486855 0)
(0.11506195 0.00025062518 0)
(0.11482305 0.00024646642 0)
(0.11458786 0.0002423917 0)
(0.1143563 0.00023840048 0)
(0.11412831 0.0002344923 0)
(0.11390381 0.00023066674 0)
(0.11368275 0.00022692348 0)
(0.11346505 0.00022326223 0)
(0.11325064 0.00021968278 0)
(0.11303946 0.00021618498 0)
(0.11283144 0.00021276877 0)
(0.11262652 0.00020943415 0)
(0.11242462 0.00020618121 0)
(0.11222568 0.0002030101 0)
(0.11202964 0.0001999211 0)
(0.11183643 0.00019691453 0)
(0.11164598 0.00019399083 0)
(0.11145822 0.00019115054 0)
(0.11127309 0.00018839432 0)
(0.11109052 0.0001857229 0)
(0.11091043 0.00018313716 0)
(0.11073277 0.00018063811 0)
(0.11055745 0.00017822685 0)
(0.11038442 0.00017590465 0)
(0.11021359 0.00017367291 0)
(0.11004491 0.00017153317 0)
(0.10987828 0.00016948715 0)
(0.10971364 0.0001675367 0)
(0.10955091 0.00016568384 0)
(0.10939002 0.00016393076 0)
(0.10923089 0.00016227983 0)
(0.10907342 0.00016073354 0)
(0.10891755 0.00015929459 0)
(0.10876319 0.00015796579 0)
(0.10861025 0.00015675007 0)
(0.10845864 0.00015565049 0)
(0.10830826 0.00015467015 0)
(0.10815904 0.00015381216 0)
(0.10801087 0.00015307965 0)
(0.10786365 0.00015247565 0)
(0.10771729 0.00015200332 0)
(0.10757168 0.0001516657 0)
(0.10742671 0.00015146782 0)
(0.10728229 0.00015141278 0)
(0.10713829 0.00015152431 0)
(0.10699473 0.00015178193 0)
(0.10685103 0.00015239731 0)
(0.10670898 0.00015286982 0)
(0.10656167 0.00015563562 0)
(0.10643684 0.0001529472 0)
(0.10623452 0.00018082834 0)
(0.39169109 -0.0092064504 0)
(0.37566926 -0.022266578 0)
(0.36381673 -0.030942835 0)
(0.35365621 -0.036567453 0)
(0.34375812 -0.039265592 0)
(0.33474826 -0.03927403 0)
(0.32722191 -0.037202486 0)
(0.321239 -0.0337741 0)
(0.31665271 -0.029630044 0)
(0.31326844 -0.025259157 0)
(0.31085462 -0.02099152 0)
(0.30916683 -0.017021679 0)
(0.30798505 -0.013445401 0)
(0.30713038 -0.010294467 0)
(0.30646372 -0.0075621629 0)
(0.30587985 -0.0052204875 0)
(0.30530168 -0.0032314063 0)
(0.30467476 -0.001553979 0)
(0.30396184 -0.00014808165 0)
(0.30313292 0.0010237907 0)
(0.30217678 0.0019953142 0)
(0.30109097 0.0027964478 0)
(0.29987724 0.003452997 0)
(0.29854049 0.0039868752 0)
(0.29708766 0.004416623 0)
(0.29552694 0.0047579143 0)
(0.29386732 0.0050240027 0)
(0.2921182 0.0052261159 0)
(0.2902892 0.0053737951 0)
(0.2883899 0.0054751791 0)
(0.2864297 0.0055372359 0)
(0.28441772 0.0055659522 0)
(0.28236268 0.0055664876 0)
(0.28027288 0.0055433001 0)
(0.27815608 0.0055002482 0)
(0.27601956 0.0054406759 0)
(0.27387004 0.0053674826 0)
(0.2717137 0.0052831819 0)
(0.26955619 0.0051899514 0)
(0.26740262 0.0050896754 0)
(0.2652576 0.0049839811 0)
(0.26312523 0.0048742707 0)
(0.26100918 0.0047617488 0)
(0.25891265 0.0046474469 0)
(0.25683844 0.0045322441 0)
(0.25478898 0.0044168864 0)
(0.25276633 0.004302003 0)
(0.25077224 0.0041881209 0)
(0.24880815 0.004075678 0)
(0.24687523 0.0039650342 0)
(0.24497441 0.0038564818 0)
(0.24310641 0.0037502541 0)
(0.24127174 0.0036465338 0)
(0.23947072 0.0035454594 0)
(0.23770354 0.0034471315 0)
(0.23597024 0.0033516186 0)
(0.23427072 0.0032589611 0)
(0.23260481 0.003169176 0)
(0.23097223 0.0030822604 0)
(0.2293726 0.0029981949 0)
(0.22780551 0.0029169457 0)
(0.22627046 0.002838468 0)
(0.22476694 0.0027627074 0)
(0.22329436 0.0026896019 0)
(0.22185213 0.0026190837 0)
(0.22043962 0.0025510804 0)
(0.21905619 0.0024855162 0)
(0.21770118 0.0024223128 0)
(0.21637393 0.0023613907 0)
(0.21507376 0.0023026693 0)
(0.21380001 0.002246068 0)
(0.21255202 0.0021915065 0)
(0.21132911 0.0021389056 0)
(0.21013065 0.0020881869 0)
(0.20895597 0.0020392737 0)
(0.20780446 0.001992091 0)
(0.20667548 0.0019465657 0)
(0.20556844 0.0019026268 0)
(0.20448273 0.0018602054 0)
(0.20341779 0.001819235 0)
(0.20237304 0.0017796513 0)
(0.20134795 0.0017413925 0)
(0.20034198 0.001704399 0)
(0.19935462 0.0016686137 0)
(0.19838537 0.0016339818 0)
(0.19743374 0.0016004508 0)
(0.19649929 0.0015679705 0)
(0.19558155 0.001536493 0)
(0.19468009 0.0015059725 0)
(0.1937945 0.0014763654 0)
(0.19292436 0.0014476301 0)
(0.19206929 0.0014197269 0)
(0.19122892 0.0013926184 0)
(0.19040288 0.0013662686 0)
(0.18959083 0.0013406437 0)
(0.18879243 0.0013157113 0)
(0.18800736 0.001291441 0)
(0.1872353 0.0012678036 0)
(0.18647596 0.0012447717 0)
(0.18572905 0.0012223193 0)
(0.18499429 0.0012004217 0)
(0.18427141 0.0011790557 0)
(0.18356016 0.0011581992 0)
(0.18286029 0.0011378314 0)
(0.18217156 0.0011179325 0)
(0.18149373 0.001098484 0)
(0.18082659 0.0010794683 0)
(0.18016992 0.0010608688 0)
(0.1795235 0.0010426699 0)
(0.17888715 0.0010248567 0)
(0.17826067 0.0010074154 0)
(0.17764386 0.00099033273 0)
(0.17703655 0.00097359635 0)
(0.17643856 0.00095719455 0)
(0.17584972 0.00094111627 0)
(0.17526986 0.00092535113 0)
(0.17469884 0.00090988929 0)
(0.17413648 0.00089472152 0)
(0.17358263 0.00087983907 0)
(0.17303716 0.00086523372 0)
(0.17249992 0.0008508977 0)
(0.17197076 0.00083682369 0)
(0.17144956 0.00082300477 0)
(0.17093618 0.00080943442 0)
(0.17043048 0.00079610649 0)
(0.16993236 0.00078301516 0)
(0.16944167 0.00077015494 0)
(0.16895831 0.00075752064 0)
(0.16848215 0.00074510737 0)
(0.16801308 0.00073291049 0)
(0.16755098 0.00072092562 0)
(0.16709575 0.00070914862 0)
(0.16664727 0.00069757557 0)
(0.16620544 0.00068620276 0)
(0.16577015 0.00067502668 0)
(0.1653413 0.00066404402 0)
(0.1649188 0.00065325162 0)
(0.16450253 0.00064264651 0)
(0.1640924 0.00063222588 0)
(0.16368831 0.00062198706 0)
(0.16329017 0.00061192753 0)
(0.16289789 0.0006020449 0)
(0.16251136 0.00059233694 0)
(0.1621305 0.00058280151 0)
(0.16175522 0.00057343661 0)
(0.16138543 0.00056424038 0)
(0.16102103 0.00055521104 0)
(0.16066194 0.00054634694 0)
(0.16030808 0.00053764656 0)
(0.15995935 0.00052910846 0)
(0.15961568 0.00052073134 0)
(0.15927696 0.00051251398 0)
(0.15894313 0.00050445529 0)
(0.1586141 0.0004965543 0)
(0.15828978 0.00048881013 0)
(0.15797009 0.00048122202 0)
(0.15765495 0.00047378935 0)
(0.15734428 0.0004665116 0)
(0.15703799 0.00045938837 0)
(0.156736 0.00045241942 0)
(0.15643823 0.00044560462 0)
(0.1561446 0.00043894397 0)
(0.15585503 0.00043243765 0)
(0.15556944 0.00042608596 0)
(0.15528774 0.00041988938 0)
(0.15500986 0.00041384856 0)
(0.1547357 0.0004079643 0)
(0.1544652 0.00040223763 0)
(0.15419826 0.00039666972 0)
(0.15393481 0.000391262 0)
(0.15367475 0.00038601608 0)
(0.15341801 0.0003809338 0)
(0.15316449 0.00037601726 0)
(0.15291412 0.00037126879 0)
(0.15266681 0.00036669099 0)
(0.15242245 0.00036228672 0)
(0.15218098 0.00035805913 0)
(0.15194229 0.00035401166 0)
(0.15170629 0.00035014805 0)
(0.15147289 0.00034647233 0)
(0.15124198 0.00034298884 0)
(0.15101348 0.0003397022 0)
(0.15078728 0.00033661732 0)
(0.15056327 0.00033373933 0)
(0.15034135 0.00033107358 0)
(0.15012142 0.00032862557 0)
(0.14990336 0.00032640086 0)
(0.14968705 0.00032440497 0)
(0.14947239 0.00032264326 0)
(0.14925924 0.00032112093 0)
(0.1490475 0.00031984251 0)
(0.14883703 0.00031881389 0)
(0.14862774 0.0003180358 0)
(0.14841944 0.00031753084 0)
(0.14821224 0.00031725246 0)
(0.14800528 0.00031742946 0)
(0.14780141 0.00031733795 0)
(0.14759006 0.00031979491 0)
(0.14741327 0.00031513876 0)
(0.14712326 0.00034073677 0)
(0.3994608 -0.0049492924 0)
(0.39667622 -0.011922524 0)
(0.39180522 -0.017556218 0)
(0.38527604 -0.022376095 0)
(0.3778656 -0.025642615 0)
(0.37051462 -0.027016527 0)
(0.36387694 -0.026744382 0)
(0.35823894 -0.025246442 0)
(0.35367224 -0.022924154 0)
(0.35013178 -0.020127517 0)
(0.34749374 -0.017138216 0)
(0.34559334 -0.014158183 0)
(0.34426188 -0.011316923 0)
(0.3433477 -0.0086890604 0)
(0.34272259 -0.0063108545 0)
(0.34228211 -0.0041927244 0)
(0.34194371 -0.0023286703 0)
(0.34164472 -0.00070279665 0)
(0.34133631 0.00070558053 0)
(0.34098564 0.0019176605 0)
(0.34056853 0.0029541166 0)
(0.34006875 0.0038346927 0)
(0.33947664 0.004578157 0)
(0.33878757 0.005201732 0)
(0.33800049 0.0057207728 0)
(0.33711682 0.0061487836 0)
(0.33613972 0.0064975656 0)
(0.3350735 0.0067773913 0)
(0.33392324 0.0069971887 0)
(0.33269449 0.0071647209 0)
(0.33139306 0.0072867518 0)
(0.33002488 0.0073691896 0)
(0.32859587 0.0074172102 0)
(0.32711187 0.0074353612 0)
(0.32557861 0.0074276497 0)
(0.32400163 0.0073976149 0)
(0.32238626 0.0073483889 0)
(0.32073763 0.0072827481 0)
(0.31906059 0.0072031559 0)
(0.31735976 0.0071117988 0)
(0.3156395 0.0070106177 0)
(0.31390389 0.0069013341 0)
(0.31215676 0.0067854736 0)
(0.31040166 0.0066643863 0)
(0.3086419 0.0065392642 0)
(0.30688051 0.0064111574 0)
(0.3051203 0.0062809884 0)
(0.30336382 0.0061495645 0)
(0.30161341 0.0060175898 0)
(0.29987116 0.0058856754 0)
(0.29813898 0.0057543488 0)
(0.29641857 0.0056240629 0)
(0.29471144 0.0054952033 0)
(0.29301894 0.0053680958 0)
(0.29134224 0.0052430127 0)
(0.28968237 0.0051201789 0)
(0.28804022 0.0049997772 0)
(0.28641653 0.0048819527 0)
(0.28481194 0.0047668179 0)
(0.28322697 0.0046544561 0)
(0.28166205 0.0045449256 0)
(0.28011751 0.004438262 0)
(0.2785936 0.0043344822 0)
(0.27709049 0.0042335861 0)
(0.2756083 0.0041355595 0)
(0.27414705 0.0040403759 0)
(0.27270676 0.0039479985 0)
(0.27128737 0.003858382 0)
(0.26988877 0.0037714735 0)
(0.26851083 0.0036872145 0)
(0.26715339 0.0036055418 0)
(0.26581626 0.0035263884 0)
(0.26449921 0.0034496843 0)
(0.263202 0.0033753578 0)
(0.26192439 0.0033033355 0)
(0.2606661 0.0032335434 0)
(0.25942686 0.0031659072 0)
(0.25820636 0.0031003529 0)
(0.25700432 0.0030368067 0)
(0.25582043 0.0029751961 0)
(0.25465438 0.0029154495 0)
(0.25350587 0.0028574966 0)
(0.2523746 0.002801269 0)
(0.25126025 0.0027466996 0)
(0.25016252 0.0026937234 0)
(0.24908111 0.0026422772 0)
(0.24801571 0.0025922998 0)
(0.24696603 0.002543732 0)
(0.24593178 0.0024965167 0)
(0.24491268 0.002450599 0)
(0.24390844 0.0024059259 0)
(0.24291879 0.0023624465 0)
(0.24194345 0.0023201121 0)
(0.24098217 0.0022788759 0)
(0.24003468 0.0022386931 0)
(0.23910074 0.0021995209 0)
(0.2381801 0.0021613183 0)
(0.23727252 0.0021240463 0)
(0.23637777 0.0020876676 0)
(0.23549562 0.0020521467 0)
(0.23462585 0.0020174497 0)
(0.23376825 0.0019835445 0)
(0.23292261 0.0019504004 0)
(0.23208871 0.0019179883 0)
(0.23126638 0.0018862807 0)
(0.23045541 0.0018552511 0)
(0.22965561 0.0018248748 0)
(0.22886681 0.001795128 0)
(0.22808882 0.0017659884 0)
(0.22732148 0.0017374348 0)
(0.22656462 0.001709447 0)
(0.22581807 0.001682006 0)
(0.22508167 0.0016550937 0)
(0.22435527 0.0016286931 0)
(0.22363872 0.001602788 0)
(0.22293187 0.0015773632 0)
(0.22223457 0.0015524041 0)
(0.22154669 0.0015278971 0)
(0.22086808 0.0015038293 0)
(0.22019862 0.0014801884 0)
(0.21953816 0.0014569629 0)
(0.21888659 0.0014341418 0)
(0.21824377 0.0014117149 0)
(0.21760959 0.0013896722 0)
(0.21698392 0.0013680046 0)
(0.21636664 0.0013467033 0)
(0.21575764 0.0013257601 0)
(0.2151568 0.0013051671 0)
(0.21456401 0.001284917 0)
(0.21397916 0.0012650026 0)
(0.21340214 0.0012454174 0)
(0.21283285 0.0012261551 0)
(0.21227117 0.0012072097 0)
(0.211717 0.0011885757 0)
(0.21117025 0.0011702476 0)
(0.21063081 0.0011522205 0)
(0.21009857 0.0011344895 0)
(0.20957345 0.0011170501 0)
(0.20905535 0.0010998981 0)
(0.20854416 0.0010830294 0)
(0.20803979 0.0010664402 0)
(0.20754215 0.0010501267 0)
(0.20705115 0.0010340857 0)
(0.20656669 0.0010183138 0)
(0.20608868 0.0010028081 0)
(0.20561703 0.00098756556 0)
(0.20515164 0.00097258365 0)
(0.20469244 0.00095785981 0)
(0.20423933 0.00094339168 0)
(0.20379222 0.00092917709 0)
(0.20335102 0.00091521404 0)
(0.20291565 0.00090150068 0)
(0.20248602 0.00088803532 0)
(0.20206205 0.00087481646 0)
(0.20164363 0.00086184275 0)
(0.2012307 0.00084911303 0)
(0.20082317 0.00083662629 0)
(0.20042094 0.00082438172 0)
(0.20002394 0.00081237868 0)
(0.19963207 0.00080061674 0)
(0.19924526 0.00078909566 0)
(0.19886341 0.0007778154 0)
(0.19848644 0.00076677613 0)
(0.19811427 0.00075597826 0)
(0.19774681 0.00074542244 0)
(0.19738397 0.00073510953 0)
(0.19702567 0.00072504069 0)
(0.19667182 0.00071521734 0)
(0.19632233 0.00070564117 0)
(0.19597711 0.00069631419 0)
(0.19563608 0.00068723872 0)
(0.19529914 0.00067841742 0)
(0.19496621 0.00066985328 0)
(0.19463718 0.00066154969 0)
(0.19431197 0.00065351039 0)
(0.19399049 0.00064573955 0)
(0.19367264 0.00063824175 0)
(0.19335832 0.000631022 0)
(0.19304742 0.00062408576 0)
(0.19273986 0.00061743893 0)
(0.19243553 0.00061108789 0)
(0.19213432 0.00060503944 0)
(0.19183613 0.00059930086 0)
(0.19154084 0.00059387978 0)
(0.19124834 0.00058878421 0)
(0.19095852 0.00058402242 0)
(0.19067126 0.00057960281 0)
(0.19038644 0.00057553378 0)
(0.19010394 0.0005718234 0)
(0.18982361 0.00056847933 0)
(0.18954535 0.00056550767 0)
(0.18926901 0.00056291479 0)
(0.18899448 0.00056069796 0)
(0.18872155 0.00055887455 0)
(0.18845042 0.0005573705 0)
(0.18817987 0.00055640683 0)
(0.18791396 0.0005550954 0)
(0.18763771 0.000556364 0)
(0.18740932 0.00054988072 0)
(0.1870276 0.00057082621 0)
(0.3996566 -0.0032326399 0)
(0.39789423 -0.0093618242 0)
(0.3944522 -0.014820552 0)
(0.38992512 -0.019209992 0)
(0.38487773 -0.022118594 0)
(0.37974061 -0.023463356 0)
(0.37489387 -0.023462593 0)
(0.37061371 -0.022426005 0)
(0.36704042 -0.020652462 0)
(0.36420431 -0.018411318 0)