/*--------------------------------*- C++ -*----------------------------------*\
| =========                 |                                                 |
| \\      /  F ield         | OpenFOAM: The Open Source CFD Toolbox           |
|  \\    /   O peration     | Version:  2406                                  |
|   \\  /    A nd           | Website:  www.openfoam.com                      |
|    \\/     M anipulation  |                                                 |
\*---------------------------------------------------------------------------*/
FoamFile
{
    version     2.0;
    format      ascii;
    arch        "LSB;label=32;scalar=64";
    class       volScalarField;
    location    "2500";
    object      T;
}
// * * * * * * * * * * * * * * * * * * * * * * * * * * * * * * * * * * * * * //

dimensions      [0 0 0 0 0 0 0];

internalField   nonuniform List<scalar> 
6800
(
1
1
1
1
1
1
1
1
1
1
1
1
1
1
1
1
1
1
1
1
1
1
1
1
1
1
1
1
1
1
1
1
1
1
1
1
1
1
1
1
1
1
1
1
1
1
1
1
1
1
1
1
1
1
1
1
1
1
1
1
1
1
1
1
1
1
1
1
1
1
1
1
1
1
1
1
1
1
1
1
1
1
1
1
1
1
1
1
1
1
1
1
1
1
1
1
1
1
1
1
1
1
1
1
1
1
1
1
1
1
1
1
1
1
1
1
1
1
1
1
1
1
1
1
1
1
1
1
1
1
1
1
1
1
1
1
1
1
1
1
1
1
1
1
1
1
1
1
1
1
1
1
1
1
1
1
1
1
1
1
1
1
1
1
1
1
1
1
1
1
1
1
1
1
1
1
1
1
1
1
1
1
1
1
1
1
1
1
1
1
1
1
1
1
1
1
1
1
1
1
1
1
1
1
1
1
1
1
1
1
1
1
1
1
1
1
1
1
1
1
1
1
1
1
1
1
1
1
1
1
1
1
1
1
1
1
1
1
1
1
1
1
1
1
1
1
1
1
1
1
1
1
1
1
1
1
1
1
1
1
1
1
1
1
1
1
1
1
1
1
1
1
1
1
1
1
1
1
1
1
1
1
1
1
1
1
1
1
1
1
1
1
1
1
1
1
1
1
1
1
1
1
1
1
1
1
1
1
1
1
1
1
1
1
1
1
1
1
1
1
1
1
1
1
1
1
1
1
1
1
1
1
1
1
1
1
1
1
1
1
1
1
1
1
1
1
1
1
1
1
1
1
1
1
1
1
1
1
1
1
1
1
1
1
1
1
1
1
1
1
1
1
1
1
1
1
1
1
1
1
1
1
1
1
1
1
1
1
1
1
1
1
1
1
1
1
1
1
1
1
1
1
1
1
1
1
1
1
1
1
1
1
1
1
1
1
1
1
1
1
1
1
1
1
1
1
1
1
1
1
1
1
1
1
1
1
1
1
1
1
1
1
1
1
1
1
1
1
1
1
1
1
1
1
1
1
1
1
1
1
1
1
1
1
1
1
1
1
1
1
1
1
1
1
1
1
1
1
1
1
1
1
1
1
1
1
1
1
1
1
1
1
1
1
1
1
1
1
1
1
1
1
1
1
1
1
1
1
1
1
1
1
1
1
1
1
1
1
1
1
1
1
1
1
1
1
1
1
1
1
1
1
1
1
1
1
1
1
1
1
1
1
1
1
1
1
1
1
1
1
1
1
1
1
1
1
1
1
1
1
1
1
1
1
1
1
1
1
1
1
1
1
1
1
1
1
1
1
1
1
1
1
1
1
1
1
1
1
1
1
1
1
1
1
1
1
1
1
1
1
1
1
1
1
1
1
1
1
1
1
1
1
1
1
1
1
1
1
1
1
1
1
1
1
1
1
1
1
1
1
1
1
1
1
1
1
1
1
1
1
1
1
1
1
1
1
1
1
1
1
1
1
1
1
1
1
1
1
1
1
1
1
1
1
1
1
1
1
1
1
1
1
1
1
1
1
1
1
1
1
1
1
1
1
1
1
1
1
1
1
1
1
1
1
1
1
1
1
1
1
1
1
1
1
1
1
1
1
1
1
1
1
1
1
1
1
1
1
1
1
1
1
1
1
1
1
1
1
1
1
1
1
1
1
1
1
1
1
1
1
1
1
1
1
1
1
1
1
1
1
1
1
1
1
1
1
1
1
1
1
1
1
1
1
1
1
1
1
1
1
1
1
1
1
1
1
1
1
1
1
1
1
1
1
1
1
1
1
1
1
1
1
1
1
1
1
1
1
1
1
1
1
1
1
1
1
1
1
1
1
1
1
1
1
1
1
1
1
1
1
1
1
1
1
1
1
1
1
1
1
1
1
1
1
1
1
1
1
1
1
1
1
1
1
1
1
1
1
1
1
1
1
1
1
1
1
1
1
1
1
1
1
1
1
1
1
1
1
1
1
1
1
1
1
1
1
1
1
1
1
1
1
1
1
1
1
1
1
1
1
1
1
1
1
1
1
1
1
1
1
1
1
1
1
1
1
1
1
1
1
1
1
1
1
1
1
1
1
1
1
1
1
1
1
1
1
1
1
1
1
1
1
1
1
1
1
1
1
1
1
1
1
1
1
1
1
1
1
1
1
1
1
1
1
1
1
1
1
1
1
1
1
1
1
1
1
1
1
1
1
1
1
1
1
1
1
1
1
1
1
1
1
1
1
1
1
1
1
1
1
1
1
1
1
1
1
1
1
1
1
1
1
1
1
1
1
1
1
1
1
1
1
1
1
1
1
1
1
1
1
1
1
1
1
1
1
1
1
1
1
1
1
1
1
1
1
1
1
1
1
1
1
1
1
1
1
1
1
1
1
1
1
1
1
1
1
1
1
1
1
1
1
1
1
1
1
1
1
1
1
1
1
1
1
1
1
1
1
1
1
1
1
1
1
1
1
1
1
1
1
1
1
1
1
1
1
1
1
1
1
1
1
1
1
1
1
1
1
1
1
1
1
1
1
1
1
1
1
1
1
1
1
1
1
1
1
1
1
1
1
1
1
1
1
1
1
1
1
1
1
1
1
1
1
1
1
1
1
1
1
1
1
1
1
1
1
1
1
1
1
1
1
1
1
1
1
1
1
1
1
1
1
1
1
1
1
1
1
1
1
1
1
1
1
1
1
1
1
1
1
1
1
1
1
1
1
1
1
1
1
1
1
1
1
1
1
1
1
1
1
1
1
1
1
1
1
1
1
1
1
1
1
1
1
1
1
1
1
1
1
1
1
1
1
1
1
1
1
1
1
1
1
1
1
1
1
1
1
1
1
1
1
1
1
1
1
1
1
1
1
1
1
1
1
1
1
1
1
1
1
1
1
1
1
1
1
1
1
1
1
1
1
1
1
1
1
1
1
1
1
1
1
1
1
1
1
1
1
1
1
1
1
1
1
1
1
1
1
1
1
1
1
1
1
1
1
1
1
1
1
1
1
1
1
1
1
1
1
1
1
1
1
1
1
1
1
1
1
1
1
1
1
1
1
1
1
1
1
1
1
1
1
1
1
1
1
1
1
1
1
1
1
1
1
1
1
1
1
1
1
1
1
1
1
1
1
1
1
1
1
1
1
1
1
1
1
1
1
1
1
1
1
1
1
1
1
1
1
1
1
1
1
1
1
1
1
1
1
1
1
1
1
1
1
1
1
1
1
1
1
1
1
1
1
1
1
1
1
1
1
1
1
1
1
1
1
1
1
1
1
1
1
1
1
1
1
1
1
1
1
1
1
1
1
1
1
1
1
1
1
1
1
1
1
1
1
1
1
1
1
1
1
1
1
1
1
1
1
1
1
1
1
1
1
1
1
1
1
1
1
1
1
1
1
1
1
1
1
1
1
1
1
1
1
1
1
1
1
1
1
1
1
1
1
1
1
1
1
1
1
1
1
1
1
1
1
1
1
1
1
1
1
1
1
1
1
1
1
1
1
1
1
1
1
1
1
1
1
1
1
1
1
1
1
1
1
1
1
1
1
1
1
1
1
1
1
1
1
1
1
1
1
1
1
1
1
1
1
1
1
1
1
1
1
1
1
1
1
1
1
1
1
1
1
1
1
1
1
1
1
1
1
1
1
1
1
1
1
1
1
1
1
1
1
1
1
1
1
1
1
1
1
1
1
1
1
1
1
1
1
1
1
1
1
1
1
1
1
1
1
1
1
1
1
1
1
1
1
1
1
1
1
1
1
1
1
1
1
1
1
1
1
1
1
1
1
1
1
1
1
1
1
1
1
1
1
1
1
1
1
1
1
1
1
1
1
1
1
1
1
1
1
1
1
1
1
1
1
1
1
1
1
1
1
1
1
1
1
1
1
1
1
1
1
1
1
1
1
1
1
1
1
1
1
1
1
1
1
1
1
1
1
1
1
1
1
1
1
1
1
1
1
1
1
1
1
1
1
1
1
1
1
1
1
1
1
1
1
1
1
1
1
1
1
1
1
1
1
1
1
1
1
1
1
1
1
1
1
1
1
1
1
1
1
1
1
1
1
1
1
1
1
1
1
1
1
1
1
1
1
1
1
1
1
1
1
1
1
1
1
1
1
1
1
1
1
1
1
1
1
1
1
1
1
1
1
1
1
1
1
1
1
1
1
1
1
1
1
1
1
1
1
0.99999999
0.99999988
0.99999953
0.99999899
0.99999861
0.99999863
0.99999864
0.99999867
0.9999987
0.99999874
0.99999879
0.99999883
0.99999888
0.99999893
0.99999897
0.99999902
0.99999906
0.9999991
0.99999913
0.99999916
0.99999918
0.9999992
0.99999922
0.99999923
0.99999924
0.99999925
0.99999925
0.99999925
0.99999925
0.99999926
0.99999926
0.99999926
0.99999927
0.99999928
0.99999929
0.9999993
0.99999931
0.99999933
0.99999935
0.99999936
0.99999938
0.9999994
0.99999942
0.99999944
0.99999945
0.99999947
0.99999948
0.99999949
0.9999995
0.99999951
0.99999952
0.99999952
0.99999953
0.99999953
0.99999953
0.99999954
0.99999954
0.99999954
0.99999954
0.99999955
0.99999955
0.99999956
0.99999956
0.99999957
0.99999958
0.99999958
0.99999959
0.9999996
0.99999961
0.99999962
0.99999962
0.99999963
0.99999964
0.99999965
0.99999965
0.99999966
0.99999966
0.99999967
0.99999967
0.99999967
0.99999968
0.99999968
0.99999968
0.99999969
0.99999969
0.99999969
0.99999969
0.9999997
0.9999997
0.9999997
0.9999997
0.99999971
0.99999971
0.99999972
0.99999972
0.99999972
0.99999973
0.99999973
0.99999974
0.99999974
0.99999974
0.99999975
0.99999975
0.99999975
0.99999976
0.99999976
0.99999976
0.99999977
0.99999977
0.99999977
0.99999977
0.99999977
0.99999978
0.99999978
0.99999978
0.99999978
0.99999978
0.99999979
0.99999979
0.99999979
0.99999979
0.99999979
0.9999998
0.9999998
0.9999998
0.9999998
0.99999981
0.99999981
0.99999981
0.99999981
0.99999982
0.99999982
0.99999982
0.99999982
0.99999982
0.99999982
0.99999983
0.99999983
0.99999983
0.99999983
0.99999983
0.99999983
0.99999983
0.99999984
0.99999984
0.99999984
0.99999984
0.99999984
0.99999984
0.99999984
0.99999985
0.99999985
0.99999985
0.99999985
0.99999985
0.99999985
0.99999986
0.99999986
1
1
1
1
1
1
1
1
1
1
1
1
1
1
1
1
1
1
1
0.9999981
0.99999259
0.99999268
0.99999282
0.99999303
0.99999329
0.9999936
0.99999395
0.99999431
0.99999468
0.99999504
0.99999538
0.99999569
0.99999597
0.99999622
0.99999643
0.99999661
0.99999675
0.99999686
0.99999694
0.99999699
0.99999701
0.99999702
0.99999367
0.99997563
0.99994353
0.9998998
0.99985243
0.99981636
0.99981091
0.99981372
0.9998178
0.99982301
0.99982913
0.99983591
0.99984307
0.99985035
0.99985753
0.99986442
0.99987087
0.99987679
0.9998821
0.99988677
0.99989079
0.99989415
0.9998969
0.99989905
0.99990067
0.99990182
0.99990256
0.99990299
0.99990322
0.99990334
0.99990025
0.9998976
0.9998981
0.99989892
0.99990009
0.99990163
0.99990352
0.99990574
0.9999082
0.99991085
0.9999136
0.99991638
0.99991912
0.99992177
0.99992427
0.9999266
0.99992872
0.99993062
0.99993229
0.99993374
0.99993498
0.99993601
0.99993686
0.99993756
0.99993813
0.9999386
0.99993902
0.99993942
0.99993983
0.99994029
0.99994082
0.99994143
0.99994215
0.99994297
0.9999439
0.99994491
0.99994599
0.99994713
0.9999483
0.99994947
0.99995064
0.99995177
0.99995285
0.99995388
0.99995484
0.99995572
0.99995652
0.99995725
0.9999579
0.99995848
0.999959
0.99995946
0.99995989
0.99996028
0.99996065
0.99996101
0.99996138
0.99996176
0.99996215
0.99996258
0.99996303
0.99996351
0.99996401
0.99996455
0.9999651
0.99996567
0.99996624
0.99996682
0.99996739
0.99996795
0.99996849
0.99996901
0.9999695
0.99996997
0.99997041
0.99997082
0.9999712
0.99997156
0.9999719
0.99997221
0.99997251
0.9999728
0.99997307
0.99997335
0.99997362
0.99997389
0.99997417
0.99997445
0.99997474
0.99997503
0.99997534
0.99997565
0.99997596
0.99997628
0.9999766
0.99997692
0.99997723
0.99997754
0.99997784
0.99997813
0.99997842
0.99997869
0.99997895
0.9999792
0.99997944
0.99997967
0.99997989
0.99998011
0.99998031
0.99998051
0.99998071
0.9999809
0.9999811
0.99998129
0.99998148
0.99998167
0.99998186
0.99998206
0.99998225
0.99998245
0.99998265
0.99998284
0.99998304
0.99998323
0.99998343
0.99998362
0.99998381
0.99998399
0.99999763
0.99999514
0.99999263
0.99999021
0.99998808
0.99998645
0.99998546
0.99998508
0.99998518
0.9999856
0.99998619
0.9999868
0.99998735
0.99998777
0.99998802
0.99998808
0.99998793
0.99998759
0.99998708
0.99869624
0.99661449
0.99455633
0.99341983
0.99359761
0.99385372
0.99417357
0.99453692
0.99492264
0.99531179
0.99568911
0.99604345
0.99636746
0.996657
0.99691037
0.99712758
0.99730975
0.99745866
0.99757636
0.997665
0.99772675
0.99776388
0.99777892
0.99777872
0.99758622
0.99709937
0.9963956
0.99556941
0.99474028
0.99405369
0.99370978
0.99380532
0.99395247
0.99414422
0.99437048
0.9946199
0.99488125
0.99514447
0.99540117
0.99564483
0.9958707
0.99607564
0.99625781
0.99641641
0.99655141
0.99666336
0.99675328
0.99682254
0.99687286
0.99690635
0.99692557
0.99693354
0.99693382
0.99687018
0.99676263
0.9966509
0.99658273
0.99660147
0.99663863
0.99669056
0.99675655
0.99683486
0.99692297
0.99701799
0.99711688
0.9972168
0.99731519
0.9974099
0.99749923
0.99758191
0.99765707
0.99772422
0.99778318
0.99783401
0.99787706
0.99791283
0.99794206
0.99796564
0.99798462
0.99800016
0.99801354
0.99802606
0.99803899
0.99805349
0.99807054
0.99809085
0.99811485
0.99814268
0.99817414
0.99820883
0.99824613
0.99828531
0.99832558
0.99836615
0.99840628
0.99844531
0.99848269
0.99851798
0.99855086
0.99858114
0.99860871
0.99863358
0.99865588
0.99867577
0.99869351
0.99870941
0.99872384
0.99873719
0.99874984
0.99876219
0.99877461
0.99878742
0.99880088
0.99881518
0.99883042
0.99884663
0.99886378
0.99888173
0.99890035
0.99891941
0.9989387
0.998958
0.99897709
0.99899576
0.99901384
0.99903118
0.99904769
0.99906329
0.99907795
0.99909167
0.99910449
0.99911647
0.99912769
0.99913825
0.99914829
0.99915791
0.99916725
0.99917643
0.99918556
0.99919473
0.99920402
0.99921349
0.99922316
0.99923305
0.99924314
0.99925341
0.9992638
0.99927425
0.99928472
0.99929512
0.99930539
0.99931547
0.99932532
0.99933487
0.99934411
0.999353
0.99936154
0.99936974
0.99937759
0.99938513
0.99939238
0.99939937
0.99940615
0.99941276
0.99941923
0.99942561
0.99943192
0.99943821
0.99944449
0.99945079
0.9994571
0.99946344
0.99946981
0.99947619
0.99948257
0.99948894
0.99949528
0.99950157
0.99950779
0.99951394
0.99951993
0.48101103
0.47774784
0.47935429
0.48623947
0.50768506
0.54735649
0.60033067
0.65629304
0.70955367
0.75656978
0.79592211
0.82762729
0.8524294
0.87130552
0.88519482
0.89488898
0.90100271
0.90398683
0.90424432
0.90253662
0.89796605
0.89096011
0.88224333
0.87414886
0.87154334
0.87675633
0.8843037
0.89282026
0.90166478
0.91034865
0.91853702
0.92602548
0.93270985
0.93855717
0.94358125
0.9478235
0.95133871
0.95418513
0.95641784
0.95808496
0.95922658
0.95987646
0.96006858
0.96006823
0.95942399
0.95770828
0.95512543
0.95195134
0.94855267
0.94538348
0.94301856
0.94248048
0.94375365
0.94553126
0.94769274
0.95010561
0.95264355
0.9551973
0.95767944
0.96002481
0.96218842
0.96414209
0.96587082
0.96736933
0.96863928
0.96968707
0.97052235
0.97115732
0.97160665
0.97188806
0.97202337
0.97203968
0.97193086
0.9715191
0.97091564
0.97024585
0.96964562
0.96936794
0.96957038
0.96998132
0.97053895
0.97122616
0.97201761
0.97288354
0.97379319
0.97471745
0.97563055
0.97651105
0.97734206
0.97811113
0.97880979
0.97943306
0.97997894
0.98044791
0.98084262
0.9811676
0.98142914
0.98163519
0.98179525
0.98192019
0.98202202
0.98211335
0.9822068
0.98231415
0.98244554
0.98260873
0.98280853
0.98304666
0.98332184
0.98363018
0.98396582
0.9843216
0.98468974
0.98506247
0.98543248
0.98579327
0.98613938
0.98646645
0.98677131
0.98705189
0.98730716
0.98753709
0.98774249
0.98792498
0.98808685
0.98823096
0.98836063
0.98847949
0.98859134
0.98869995
0.98880888
0.98892128
0.98903977
0.98916626
0.9893019
0.98944707
0.9896014
0.98976388
0.98993298
0.99010682
0.99028329
0.99046021
0.9906355
0.99080723
0.99097372
0.99113359
0.9912858
0.99142968
0.99156488
0.99169137
0.99180945
0.99191967
0.9920228
0.99211981
0.99221177
0.99229986
0.99238524
0.99246906
0.99255236
0.99263604
0.99272083
0.99280725
0.99289562
0.99298604
0.99307838
0.99317238
0.9932676
0.99336352
0.99345954
0.99355505
0.99364943
0.99374211
0.99383261
0.9939205
0.99400548
0.99408735
0.99416602
0.99424148
0.99431386
0.99438333
0.99445017
0.99451469
0.99457724
0.99463819
0.99469791
0.99475676
0.99481505
0.99487306
0.99493101
0.99498906
0.9950473
0.99510576
0.99516442
0.99522321
0.995282
0.99534065
0.99539902
0.99545689
0.99551429
0.99557038
0.27774849
0.31176664
0.35104863
0.38761816
0.42338405
0.45285897
0.47690062
0.50999141
0.55654377
0.60682271
0.65460794
0.69686521
0.7325793
0.76180118
0.78502469
0.80282026
0.81559744
0.82341351
0.82596185
0.82454341
0.81668864
0.79809308
0.76768062
0.73003783
0.69298272
0.6638534
0.65537142
0.66863196
0.68861068
0.71050737
0.73265472
0.75394915
0.77372088
0.79161177
0.80747603
0.82130394
0.8331654
0.84316907
0.85143295
0.8580646
0.86314718
0.86673336
0.86884794
0.86950876
0.86950832
0.8678716
0.8635889
0.85708086
0.84897958
0.84011904
0.83148175
0.8241034
0.8193734
0.81962684
0.82392557
0.82965905
0.83639053
0.84369476
0.85120024
0.85860723
0.86568965
0.87228776
0.8782969
0.88365532
0.88833291
0.89232179
0.89562903
0.89827175
0.90027447
0.90166899
0.90249659
0.90281257
0.90281222
0.90226098
0.90097426
0.8991802
0.89714447
0.89515848
0.89352239
0.89294094
0.89377411
0.89527662
0.89726881
0.89966884
0.90237518
0.9052797
0.90827796
0.91127612
0.91419473
0.91697006
0.91955374
0.92191141
0.924021
0.92587085
0.92745822
0.92878799
0.92987191
0.93072818
0.93138126
0.93186179
0.93220632
0.93245661
0.93265816
0.93285791
0.93310128
0.9334287
0.93387254
0.93445462
0.93518501
0.93606205
0.93707367
0.93819954
0.9394137
0.94068723
0.94199059
0.94329563
0.94457691
0.94581265
0.94698519
0.94808111
0.9490912
0.95001021
0.95083657
0.95157212
0.95222174
0.95279306
0.95329611
0.95374287
0.95414683
0.95452238
0.95488411
0.95524612
0.95562119
0.95602012
0.95645115
0.95691955
0.95742754
0.95797431
0.95855643
0.95916827
0.95980262
0.9604513
0.96110572
0.96175748
0.96239873
0.96302257
0.96362323
0.96419623
0.96473846
0.96524816
0.96572488
0.96616941
0.96658362
0.96697032
0.96733312
0.96767618
0.96800405
0.96832137
0.96863274
0.96894238
0.96925405
0.9695708
0.96989487
0.97022767
0.97056969
0.97092064
0.97127945
0.97164448
0.97201362
0.97238446
0.97275448
0.97312117
0.97348216
0.97383538
0.97417905
0.97451184
0.97483281
0.97514149
0.97543783
0.97572217
0.97599522
0.97625798
0.97651169
0.97675776
0.97699767
0.97723292
0.97746495
0.97769507
0.97792442
0.97815391
0.9783842
0.97861569
0.97884854
0.97908264
0.97931771
0.97955326
0.97978875
0.9800233
0.98025706
0.98048654
0.27168117
0.31175948
0.35818178
0.41176412
0.46842941
0.52303226
0.56375392
0.56489862
0.56100827
0.5831325
0.6163184
0.65146463
0.68443149
0.71361709
0.73851313
0.7588869
0.77441083
0.78452431
0.78856524
0.78200367
0.75403659
0.70021869
0.62712388
0.54713137
0.47232866
0.41088813
0.36627636
0.33869409
0.34284112
0.37364117
0.41163108
0.45215893
0.49224042
0.53011565
0.56484806
0.59602469
0.62354664
0.64748663
0.66799163
0.68521893
0.69929286
0.71027611
0.71815891
0.72285928
0.72428038
0.72428013
0.72025653
0.71201828
0.70034554
0.68634653
0.67135885
0.65681397
0.64408124
0.63435123
0.62991222
0.63390085
0.64273188
0.65405669
0.66698603
0.68071937
0.69459643
0.70810756
0.72088129
0.7326617
0.74328319
0.75264699
0.76070128
0.7674257
0.7728206
0.77690122
0.77969732
0.78125796
0.78166569
0.78166543
0.78020579
0.7775
0.77390578
0.76984456
0.76577697
0.76216953
0.75946074
0.7590415
0.7612875
0.76468274
0.76907054
0.7742393
0.77995379
0.78598038
0.79210454
0.79814087
0.80393722
0.80937462
0.81436489
0.81884695
0.82278307
0.82615547
0.82896376
0.83122336
0.83296481
0.83423382
0.83509163
0.83561508
0.83589562
0.83599869
0.8358241
0.83565345
0.83576386
0.83640845
0.83738731
0.8387312
0.84044472
0.84250575
0.84487025
0.84747855
0.85026196
0.85314883
0.85606953
0.85896021
0.86176517
0.86443825
0.86694339
0.86925453
0.87135524
0.87323819
0.87490442
0.87636278
0.87762922
0.87872602
0.87968099
0.8805263
0.8812972
0.88203027
0.88276157
0.88352463
0.88434844
0.88525587
0.88626243
0.88737572
0.88859552
0.88991448
0.8913193
0.89279218
0.89431242
0.89585797
0.89740685
0.89893833
0.9004338
0.90187749
0.90325685
0.90456279
0.9057897
0.9069354
0.90800094
0.90899033
0.90991016
0.91076923
0.911578
0.91234808
0.91309159
0.91382063
0.91454657
0.91527959
0.91602812
0.91679854
0.91759496
0.91841913
0.91927055
0.92014669
0.92104332
0.9219549
0.92287504
0.92379692
0.92471367
0.92561881
0.92650648
0.92737172
0.9282106
0.92902035
0.92979939
0.93054731
0.93126479
0.93195353
0.93261604
0.93325553
0.9338757
0.9344805
0.93507399
0.93566006
0.93624232
0.93682389
0.93740733
0.93799449
0.93858652
0.93918388
0.93978636
0.94039309
0.94100296
0.94161371
0.9422257
0.94283018
0.25891675
0.29610374
0.34245577
0.39958991
0.46290065
0.52303688
0.56960404
0.59466262
0.59882379
0.60621733
0.62646303
0.6520634
0.68443157
0.70787512
0.72833957
0.74527536
0.75781871
0.76525556
0.75865905
0.71188538
0.63402013
0.53890521
0.44034554
0.34907404
0.27184023
0.21148648
0.16766391
0.13815512
0.1201668
0.1134147
0.13258264
0.16721351
0.20913904
0.25403791
0.29896397
0.34204356
0.38215667
0.41867715
0.45127621
0.47978303
0.50408792
0.52407555
0.53958868
0.55040341
0.55624926
0.55691682
0.55455869
0.54695856
0.5348466
0.51934187
0.50182476
0.48378754
0.46668181
0.45180074
0.44018583
0.43258038
0.43313021
0.44193714
0.45475516
0.47043187
0.48785285
0.50604636
0.52422242
0.54177167
0.55824357
0.57331654
0.58676785
0.59844674
0.60825274
0.6161207
0.6220124
0.62591632
0.62785824
0.62792776
0.62708192
0.62432123
0.62000606
0.61460031
0.60864015
0.60269391
0.59732114
0.59303358
0.59037189
0.59144665
0.59536851
0.60097122
0.60795392
0.61596196
0.62462934
0.6336096
0.64259477
0.65132458
0.65958849
0.66722333
0.67410877
0.68016207
0.68533338
0.68960211
0.69297489
0.69548507
0.69719333
0.69818932
0.69859217
0.69846958
0.69779165
0.69677025
0.69563427
0.69461623
0.69438655
0.69527026
0.69695017
0.69930389
0.7023049
0.7058851
0.70994549
0.71436782
0.71902571
0.7237939
0.7285554
0.73320628
0.73765855
0.74184151
0.745702
0.74920402
0.75232797
0.75506974
0.7574398
0.7594622
0.76117352
0.76262143
0.76386298
0.76496214
0.76598681
0.7670053
0.76808232
0.76927511
0.77062998
0.77217972
0.77394215
0.77591999
0.77810187
0.78046448
0.78297518
0.7855951
0.7882821
0.79099358
0.79368877
0.79633065
0.79888725
0.80133264
0.80364736
0.8058187
0.80784061
0.80971342
0.81144336
0.81304202
0.81452552
0.8159136
0.8172286
0.81849426
0.81973453
0.82097231
0.82222827
0.82351989
0.82486058
0.82625927
0.82772013
0.82924275
0.83082251
0.83245122
0.8341179
0.83580967
0.83751262
0.83921268
0.84089635
0.84255133
0.84416706
0.84573507
0.84724919
0.84870567
0.85010318
0.85144266
0.85272717
0.85396156
0.85515213
0.8563063
0.85743211
0.85853782
0.85963152
0.86072069
0.86181188
0.86291044
0.86402033
0.86514403
0.86628252
0.8674353
0.86860096
0.86977556
0.87095967
0.87213822
0.23196095
0.25079512
0.27744112
0.31903262
0.37672038
0.44469541
0.5157279
0.58052909
0.62928591
0.65452938
0.66264529
0.67683416
0.69503373
0.71059885
0.72832763
0.74013459
0.74705917
0.69648057
0.59846535
0.49226827
0.39144912
0.30243375
0.22772446
0.16763306
0.12124719
0.086950015
0.06271614
0.046389965
0.035959742
0.029762929
0.02659791
0.033485471
0.052825969
0.08102001
0.11510985
0.15236692
0.19057808
0.22806078
0.26356928
0.2961797
0.32518295
0.35000257
0.37013936
0.38511815
0.39451372
0.3979552
0.39698589
0.39093177
0.38041797
0.36641849
0.35012813
0.33283116
0.31578005
0.30010073
0.28672662
0.27636387
0.26949095
0.2679668
0.27489311
0.28634205
0.30129269
0.31865482
0.3374009
0.35663482
0.37561505
0.39374974
0.41057798
0.42574564
0.43898179
0.45007908
0.45887994
0.46526994
0.46918301
0.47061738
0.4706175
0.46843299
0.46430027
0.45865468
0.45202376
0.44498339
0.43811376
0.43196053
0.42700063
0.42361955
0.4232681
0.42675506
0.43235923
0.43976389
0.44857045
0.4583488
0.46867647
0.47916475
0.48947345
0.49931674
0.50846338
0.51673341
0.52399389
0.53015452
0.53516455
0.53901133
0.54172036
0.54335786
0.54403197
0.54399463
0.54314392
0.5416933
0.53988674
0.53798352
0.53624184
0.53490377
0.53478941
0.53628671
0.53871479
0.54205237
0.54622001
0.5510933
0.55651791
0.56232447
0.5683414
0.57440506
0.58036703
0.58609877
0.59149418
0.59647067
0.60096923
0.60495397
0.60841133
0.61134921
0.61379593
0.61579897
0.61742322
0.61874856
0.61986653
0.62087594
0.62187757
0.62296828
0.62423501
0.62574941
0.62756366
0.62970795
0.63218992
0.63499583
0.63809342
0.64143572
0.6449655
0.64861978
0.65233394
0.65604543
0.65969666
0.66323718
0.6666253
0.66982901
0.67282644
0.67560598
0.67816593
0.680514
0.68266646
0.684647
0.68648542
0.68821601
0.68987572
0.69150225
0.69313199
0.69479817
0.69652913
0.69834696
0.70026663
0.70229556
0.70443373
0.70667426
0.70900439
0.71140669
0.71386044
0.7163431
0.71883164
0.7213038
0.72373918
0.72612002
0.7284319
0.73066411
0.73280991
0.73486649
0.73683486
0.73871953
0.74052808
0.74227059
0.74395905
0.74560663
0.74722696
0.74883341
0.75043846
0.75205306
0.75368619
0.75534449
0.75703214
0.75875063
0.76049957
0.76227424
0.76407532
0.7658847
0.15698772
0.15698372
0.15698423
0.15989087
0.18256497
0.21891483
0.26712033
0.32535381
0.39068712
0.45943364
0.52807676
0.57654544
0.60119025
0.59897217
0.53261672
0.45471233
0.35133906
0.26483977
0.19920944
0.14880218
0.11013284
0.080667034
0.05842647
0.041834722
0.029636806
0.020836201
0.014636555
0.01039582
0.0075957003
0.0058265774
0.0047829807
0.0042561042
0.0064771812
0.015046406
0.03026463
0.051287142
0.076560974
0.10434555
0.13298905
0.16103851
0.18725563
0.21060379
0.23021592
0.24535715
0.25544898
0.26003051
0.25963561
0.25522756
0.24729781
0.23658185
0.22395875
0.21035876
0.19668436
0.18374942
0.17223684
0.1626767
0.15544783
0.15078881
0.14956133
0.15477905
0.1640109
0.17655197
0.19156309
0.20818073
0.22558986
0.24306309
0.25997505
0.27580086
0.29010643
0.30253694
0.31280519
0.32068643
0.32601859
0.32871046
0.32878684
0.32738543
0.32405125
0.31913943
0.31309776
0.30642497
0.2996304
0.29319946
0.28756632
0.28309563
0.28007052
0.27921251
0.28205937
0.28707153
0.29396605
0.30236959
0.31186436
0.32202596
0.33245086
0.34277389
0.35267736
0.36189458
0.37020972
0.37745596
0.38351371
0.3883091
0.3918141
0.39404866
0.39508218
0.39508236
0.39429054
0.39276221
0.39071943
0.38840703
0.38607651
0.38397103
0.38231214
0.38135305
0.38217496
0.38430222
0.38747167
0.39160219
0.39656125
0.40218065
0.40827232
0.41464245
0.42110302
0.42748047
0.43362163
0.43939744
0.444705
0.44946846
0.45363922
0.45719561
0.46014238
0.46250981
0.46435239
0.46574678
0.46678886
0.46758955
0.46826933
0.46895159
0.46975535
0.47078792
0.47213836
0.47387224
0.47602838
0.47861798
0.48162584
0.48501357
0.48872416
0.49268724
0.49682455
0.50105513
0.50529979
0.50948493
0.51354543
0.51742677
0.52108645
0.52449478
0.52763515
0.53050383
0.53310945
0.53547195
0.53762132
0.5395958
0.54143986
0.54320176
0.54493105
0.54667578
0.54848004
0.55038156
0.55240991
0.55458525
0.55691771
0.55940746
0.56204549
0.56481479
0.567692
0.57064922
0.57365594
0.57668084
0.57969354
0.58266599
0.5855737
0.58839659
0.59111965
0.59373321
0.59623306
0.59862026
0.60090072
0.60308468
0.60518593
0.60722094
0.60920789
0.61116568
0.61311289
0.61506685
0.61704279
0.61905316
0.62110713
0.6232102
0.6253648
0.62756752
0.62981925
0.63210601
0.10614546
0.055788221
0.01614123
0.016128876
0.015836584
0.014211676
0.012351038
0.010691199
0.009384158
0.0083440147
0.0075131034
0.0068270633
0.0058732468
0.0054112194
0.0049893772
0.0045879235
0.0041977517
0.003816553
0.003445289
0.0030867199
0.0027443833
0.0024217603
0.0021217289
0.0018463227
0.0015967733
0.0013737419
0.0011776009
0.0010086878
0.00086741617
0.00075416491
0.00066910045
0.0006120477
0.00058251781
0.0013847176
0.0049022996
0.012317354
0.023861865
0.038939808
0.056469075
0.075177758
0.093791359
0.11114195
0.12621506
0.13816349
0.14634263
0.15028474
0.14991396
0.14698096
0.14181965
0.13489734
0.12675318
0.11794625
0.10901381
0.10043968
0.092632293
0.085913048
0.080516442
0.07659978
0.074256371
0.074342879
0.078334517
0.085306153
0.094874156
0.10650852
0.11959781
0.1335069
0.14761998
0.16136726
0.1742396
0.18579462
0.19565724
0.20352303
0.20915717
0.21240768
0.21322595
0.21245125
0.21005587
0.20630338
0.20153486
0.19613384
0.19049342
0.18498946
0.17996046
0.17569508
0.17242569
0.17032449
0.16988611
0.17224984
0.17647768
0.18234831
0.18956097
0.19776792
0.20660373
0.21570877
0.22474611
0.23341277
0.24144632
0.24862817
0.25478566
0.25979268
0.26357137
0.26609358
0.26738316
0.26752361
0.26690718
0.26556599
0.26367916
0.26144991
0.25909148
0.25681385
0.25481256
0.25325944
0.25229538
0.25272658
0.25445556
0.25719194
0.26085942
0.26533384
0.27045651
0.27604807
0.28192128
0.28789184
0.29378704
0.29945211
0.30475468
0.30958773
0.31387131
0.31755358
0.32061109
0.32304871
0.32489884
0.32621999
0.3270945
0.32762489
0.32792904
0.32799627
0.32804766
0.32831389
0.32896726
0.32997673
0.33140915
0.33330356
0.33567023
0.338492
0.34172753
0.34531584
0.34918175
0.35324143
0.35740777
0.3615952
0.36572369
0.36972205
0.37353034
0.37710158
0.38040281
0.38341556
0.38613577
0.38857327
0.39075076
0.39270228
0.39447129
0.39610825
0.39766793
0.39920641
0.40077801
0.40243237
0.40421185
0.40614945
0.40826737
0.41057641
0.41307602
0.41575518
0.41859375
0.42156435
0.4246344
0.42776829
0.43092951
0.43408259
0.43719477
0.44023742
0.44318707
0.44602619
0.44874356
0.45133442
0.45380026
0.45614838
0.4583912
0.46054539
0.46263081
0.46466934
0.46668363
0.46869594
0.4707269
0.47279454
0.47491349
0.47709417
0.47934315
0.48166046
0.48404755
0.48650164
0.091980734
0.045398147
0.020300644
0.025211763
0.023575126
0.020250722
0.016822924
0.013745335
0.011412923
0.0095248611
0.0080019183
0.0067723313
0.0057739343
0.004953786
0.0042693477
0.0036884542
0.0031881141
0.0027524748
0.0023708151
0.0020358512
0.0017424109
0.0014864805
0.0012645912
0.0010734901
0.00091002835
0.00077118831
0.00065417643
0.00055653838
0.00047625303
0.00041176851
0.00036198981
0.00032619895
0.00030398426
0.000295128
0.00061039404
0.002041684
0.005397219
0.011062569
0.018882569
0.028278991
0.038435279
0.048461401
0.057510432
0.064846285
0.069904307
0.072294712
0.071899634
0.070255882
0.067536848
0.063971128
0.059815004
0.055330281
0.050767022
0.046350758
0.042273279
0.038687673
0.035708426
0.03341433
0.03185725
0.031069936
0.032084621
0.035040547
0.039908005
0.046535666
0.054644517
0.063854328
0.073721705
0.083777655
0.09355951
0.10263435
0.11061566
0.11717657
0.12205583
0.12507595
0.12614771
0.12576844
0.12423248
0.12171495
0.11844587
0.11468459
0.11069662
0.10673515
0.10302812
0.099770667
0.097121737
0.095203969
0.094104274
0.09442744
0.096465294
0.099898919
0.10457002
0.11026088
0.11671281
0.12364497
0.13077156
0.13781629
0.14452372
0.15066761
0.15605733
0.16054186
0.16401422
0.16641317
0.16772679
0.1679979
0.16756987
0.16654062
0.16504031
0.16321976
0.16123918
0.15925791
0.15742598
0.15587736
0.15472518
0.15405825
0.15447632
0.15588467
0.15813876
0.16117011
0.16487241
0.16911128
0.17373457
0.17858222
0.18349514
0.18832264
0.19292839
0.19719503
0.20102753
0.2043555
0.2071347
0.20934781
0.21100442
0.21214023
0.21281544
0.21311196
0.2130018
0.21270685
0.21233073
0.21196064
0.21172289
0.2119244
0.21259633
0.21367776
0.21519933
0.21716589
0.21955787
0.22233422
0.22543643
0.22879325
0.23232563
0.23595153
0.23959029
0.24316643
0.24661277
0.24987283
0.25290266
0.25567194
0.25816455
0.26037858
0.26232579
0.26403056
0.26552833
0.26686359
0.26808734
0.26925438
0.27042023
0.27163815
0.27295629
0.27441515
0.27604571
0.27786809
0.27989106
0.28211222
0.28451886
0.28708943
0.28979529
0.29260283
0.29547558
0.29837636
0.30126914
0.30412082
0.3069026
0.30959107
0.31216898
0.31462569
0.31695723
0.31916615
0.32126099
0.32325558
0.32516807
0.32701982
0.32883408
0.33063479
0.33244517
0.33428659
0.33617747
0.33813236
0.34016168
0.34226978
0.34445899
0.34674035
0.091429316
0.045400564
0.033636638
0.029552361
0.025003171
0.020672931
0.0168233
0.013524698
0.010774236
0.0085373375
0.0067568883
0.0053611093
0.0042750973
0.0034303317
0.0027696084
0.0022481469
0.0018323949
0.001497815
0.0012265944
0.0010057034
0.00082541377
0.00067825104
0.00055829505
0.00046073641
0.00038160557
0.00031760852
0.00026602346
0.00022463129
0.00019166258
0.00016575039
0.0001458858
0.00013137154
0.00012177827
0.00011687205
0.00012636777
0.00026687484
0.00082853126
0.0021605021
0.0044742456
0.007735245
0.011674724
0.015870408
0.019843473
0.023137739
0.025385711
0.02634111
0.02609317
0.025424278
0.024393267
0.023075572
0.02155512
0.019917795
0.018246315
0.016616336
0.015093474
0.013731729
0.012572906
0.011647474
0.010977369
0.010577539
0.010459197
0.011387475
0.013343506
0.016379029
0.020466973
0.025482823
0.031210313
0.037363573
0.043616722
0.049632792
0.055089718
0.05970093
0.063229533
0.065507292
0.066438061
0.066270096
0.065408178
0.063952699
0.062036874
0.059811168
0.057429363
0.055037668
0.052767342
0.050730514
0.049018992
0.047704575
0.046840305
0.04646186
0.047184279
0.04887989
0.051492964
0.054922005
0.059024669
0.063626047
0.068529377
0.073527841
0.0784161
0.083000734
0.087109243
0.090596836
0.093353023
0.095304631
0.096420468
0.096714558
0.096441645
0.095742009
0.094700503
0.093416779
0.091997391
0.090548755
0.089171459
0.087956022
0.08697992
0.08630571
0.085979667
0.086487495
0.087644568
0.08942471
0.091770809
0.094599701
0.097808206
0.10127981
0.10489147
0.10852011
0.11204855
0.11537053
0.11839495
0.12104911
0.12328114
0.12506149
0.12638367
0.12726408
0.1277409
0.1278723
0.12770189
0.12738759
0.12699085
0.1265746
0.12619994
0.12592308
0.12591618
0.12634749
0.12712391
0.12826343
0.12976427
0.13160616
0.13375254
0.13615363
0.13874994
0.14147606
0.14426433
0.14704842
0.1497664
0.15236342