/*--------------------------------*- C++ -*----------------------------------*\
| =========                 |                                                 |
| \\      /  F ield         | OpenFOAM: The Open Source CFD Toolbox           |
|  \\    /   O peration     | Version:  2406                                  |
|   \\  /    A nd           | Website:  www.openfoam.com                      |
|    \\/     M anipulation  |                                                 |
\*---------------------------------------------------------------------------*/
FoamFile
{
    version     2.0;
    format      ascii;
    arch        "LSB;label=32;scalar=64";
    class       volScalarField;
    location    "970";
    object      p;
}
// * * * * * * * * * * * * * * * * * * * * * * * * * * * * * * * * * * * * * //

dimensions      [0 2 -2 0 0 0 0];

internalField   nonuniform List<scalar> 
9800
(
-1.3098981e-05
-2.4208685e-06
1.7127414e-05
3.9764286e-05
6.0151214e-05
7.6183949e-05
8.7593558e-05
9.4940544e-05
9.9065786e-05
0.00010080294
0.00010086206
9.9801259e-05
9.8037774e-05
9.5872641e-05
9.3516798e-05
9.1113781e-05
8.8758254e-05
8.6509995e-05
8.4404174e-05
8.2458898e-05
8.068065e-05
7.9068187e-05
7.7615292e-05
7.631272e-05
7.5149552e-05
7.4114119e-05
7.3194629e-05
7.2379576e-05
7.1657997e-05
7.1019618e-05
7.0454935e-05
6.995523e-05
6.9512573e-05
6.9119782e-05
6.8770387e-05
6.8458574e-05
6.817914e-05
6.792743e-05
6.7699296e-05
6.7491038e-05
6.7299366e-05
6.7121355e-05
6.6954405e-05
6.6796209e-05
6.6644721e-05
6.6498125e-05
6.6354814e-05
6.6213365e-05
6.6072517e-05
6.5931158e-05
6.5788304e-05
6.5643089e-05
6.5494748e-05
6.5342612e-05
6.518609e-05
6.5024668e-05
6.4857897e-05
6.4685386e-05
6.4506797e-05
6.4321841e-05
6.4130269e-05
6.3931872e-05
6.3726474e-05
6.3513929e-05
6.3294122e-05
6.306696e-05
6.2832375e-05
6.2590317e-05
6.2340757e-05
6.2083681e-05
6.1819093e-05
6.1547007e-05
6.1267455e-05
6.0980475e-05
6.068612e-05
6.0384452e-05
6.0075539e-05
5.9759462e-05
5.9436305e-05
5.9106163e-05
5.8769134e-05
5.8425324e-05
5.8074844e-05
5.7717809e-05
5.735434e-05
5.6984561e-05
5.66086e-05
5.6226589e-05
5.5838662e-05
5.5444956e-05
5.5045611e-05
5.4640769e-05
5.4230573e-05
5.3815168e-05
5.33947e-05
5.2969315e-05
5.2539161e-05
5.2104386e-05
5.1665137e-05
5.1221562e-05
5.0773809e-05
5.0322022e-05
4.9866349e-05
4.9406934e-05
4.8943918e-05
4.8477444e-05
4.8007652e-05
4.7534678e-05
4.705866e-05
4.6579728e-05
4.6098016e-05
4.561365e-05
4.5126757e-05
4.4637459e-05
4.4145876e-05
4.3652125e-05
4.3156319e-05
4.2658569e-05
4.2158983e-05
4.1657664e-05
4.1154713e-05
4.0650228e-05
4.0144302e-05
3.9637026e-05
3.9128487e-05
3.8618771e-05
3.8107956e-05
3.759612e-05
3.7083338e-05
3.6569681e-05
3.6055215e-05
3.5540006e-05
3.5024114e-05
3.4507598e-05
3.3990514e-05
3.3472915e-05
3.2954849e-05
3.2436364e-05
3.1917504e-05
3.1398311e-05
3.0878824e-05
3.035908e-05
2.9839113e-05
2.9318956e-05
2.8798639e-05
2.827819e-05
2.7757634e-05
2.7236996e-05
2.6716298e-05
2.619556e-05
2.5674802e-05
2.515404e-05
2.463329e-05
2.4112567e-05
2.3591882e-05
2.3071249e-05
2.2550676e-05
2.2030174e-05
2.1509751e-05
2.0989413e-05
2.0469166e-05
1.9949017e-05
1.942897e-05
1.8909027e-05
1.8389192e-05
1.7869468e-05
1.7349855e-05
1.6830356e-05
1.6310969e-05
1.5791697e-05
1.5272537e-05
1.475349e-05
1.4234554e-05
1.3715727e-05
1.3197008e-05
1.2678396e-05
1.2159886e-05
1.1641478e-05
1.1123168e-05
1.0604954e-05
1.0086832e-05
9.5688001e-06
9.0508544e-06
8.5329918e-06
8.015209e-06
7.4975028e-06
6.9798696e-06
6.4623061e-06
5.944809e-06
5.427375e-06
4.9100009e-06
4.392684e-06
3.8754224e-06
3.3582154e-06
2.8410645e-06
2.3239776e-06
1.8069747e-06
1.2900706e-06
7.7324406e-07
2.5705103e-07
-2.0947114e-05
-7.4522091e-06
1.262995e-05
3.4962292e-05
5.5148282e-05
7.1272734e-05
8.3059929e-05
9.0997354e-05
9.5824005e-05
9.8286701e-05
9.9036626e-05
9.8598159e-05
9.7373346e-05
9.5660274e-05
9.3674157e-05
9.1566532e-05
8.9441542e-05
8.7368534e-05
8.5391663e-05
8.3537117e-05
8.1818433e-05
8.0240402e-05
7.8801902e-05
7.7497938e-05
7.6321102e-05
7.526261e-05
7.4313021e-05
7.3462731e-05
7.2702307e-05
7.2022699e-05
7.1415371e-05
7.0872372e-05
7.0386362e-05
6.9950619e-05
6.955902e-05
6.9206013e-05
6.8886579e-05
6.8596198e-05
6.8330807e-05
6.8086759e-05
6.786079e-05
6.7649977e-05
6.7451708e-05
6.7263651e-05
6.7083726e-05
6.6910077e-05
6.6741051e-05
6.6575178e-05
6.6411147e-05
6.6247796e-05
6.608409e-05
6.5919112e-05
6.5752051e-05
6.5582186e-05
6.5408884e-05
6.5231583e-05
6.5049792e-05
6.4863079e-05
6.4671066e-05
6.4473426e-05
6.4269873e-05
6.4060165e-05
6.3844093e-05
6.362148e-05
6.3392181e-05
6.3156074e-05
6.2913066e-05
6.266308e-05
6.2406065e-05
6.2141982e-05
6.1870814e-05
6.1592555e-05
6.1307216e-05
6.1014818e-05
6.0715395e-05
6.0408991e-05
6.0095662e-05
5.9775469e-05
5.9448485e-05
5.9114789e-05
5.8774467e-05
5.8427611e-05
5.807432e-05
5.7714698e-05
5.7348855e-05
5.6976903e-05
5.6598962e-05
5.6215152e-05
5.5825598e-05
5.5430429e-05
5.5029776e-05
5.4623771e-05
5.4212551e-05
5.3796251e-05
5.337501e-05
5.2948969e-05
5.2518267e-05
5.2083045e-05
5.1643445e-05
5.1199607e-05
5.0751674e-05
5.0299785e-05
4.9844081e-05
4.9384701e-05
4.8921782e-05
4.8455461e-05
4.7985872e-05
4.751315e-05
4.7037425e-05
4.6558827e-05
4.6077481e-05
4.5593514e-05
4.5107046e-05
4.4618198e-05
4.4127086e-05
4.3633823e-05
4.3138521e-05
4.2641288e-05
4.2142227e-05
4.1641442e-05
4.113903e-05
4.0635087e-05
4.0129705e-05
3.9622972e-05
3.9114975e-05
3.8605797e-05
3.8095515e-05
3.7584207e-05
3.7071944e-05
3.6558798e-05
3.6044835e-05
3.5530118e-05
3.5014708e-05
3.4498663e-05
3.3982037e-05
3.3464883e-05
3.294725e-05
3.2429185e-05
3.1910732e-05
3.1391932e-05
3.0872825e-05
3.0353447e-05
2.9833832e-05
2.9314014e-05
2.8794021e-05
2.8273883e-05
2.7753624e-05
2.7233271e-05
2.6712844e-05
2.6192364e-05
2.5671852e-05
2.5151323e-05
2.4630794e-05
2.411028e-05
2.3589794e-05
2.3069348e-05
2.2548952e-05
2.2028616e-05
2.1508349e-05
2.0988157e-05
2.0468048e-05
1.9948027e-05
1.9428099e-05
1.8908268e-05
1.8388537e-05
1.7868909e-05
1.7349386e-05
1.6829969e-05
1.6310658e-05
1.5791456e-05
1.527236e-05
1.4753372e-05
1.4234489e-05
1.3715711e-05
1.3197037e-05
1.2678464e-05
1.2159991e-05
1.1641614e-05
1.1123333e-05
1.0605144e-05
1.0087045e-05
9.5690327e-06
9.051104e-06
8.5332562e-06
8.015486e-06
7.4977905e-06
6.9801665e-06
6.4626108e-06
5.9451206e-06
5.4276928e-06
4.9103249e-06
4.3930147e-06
3.8757609e-06
3.3585632e-06
2.8414235e-06
2.3243486e-06
1.8073538e-06
1.2904341e-06
7.7351629e-07
2.5713639e-07
-5.1726395e-05
-2.3469102e-05
5.5299257e-06
3.1098065e-05
5.2476516e-05
6.8997863e-05
8.0915427e-05
8.8994314e-05
9.4053776e-05
9.6828495e-05
9.793392e-05
9.7860172e-05
9.6983844e-05
9.5587176e-05
9.3877373e-05
9.2003521e-05
9.0070677e-05
8.8151118e-05
8.6292995e-05
8.4526869e-05
8.2870627e-05
8.1333149e-05
7.9917024e-05
7.8620545e-05
7.7439163e-05
7.6366544e-05
7.5395322e-05
7.4517636e-05
7.37255e-05
7.301106e-05
7.2366757e-05
7.1785431e-05
7.1260385e-05
7.0785404e-05
7.0354768e-05
6.9963238e-05
6.9606037e-05
6.9278828e-05
6.897768e-05
6.8699043e-05
6.8439713e-05
6.8196807e-05
6.796773e-05
6.7750155e-05
6.7541989e-05
6.734136e-05
6.7146588e-05
6.695617e-05
6.6768761e-05
6.6583161e-05
6.6398295e-05
6.6213206e-05
6.6027041e-05
6.583904e-05
6.5648527e-05
6.5454903e-05
6.5257637e-05
6.5056259e-05
6.4850356e-05
6.4639565e-05
6.4423567e-05
6.4202087e-05
6.3974884e-05
6.3741752e-05
6.3502518e-05
6.3257033e-05
6.3005175e-05
6.2746846e-05
6.2481968e-05
6.2210483e-05
6.1932349e-05
6.1647541e-05
6.135605e-05
6.1057879e-05
6.0753043e-05
6.0441571e-05
6.0123501e-05
5.9798879e-05
5.9467763e-05
5.9130217e-05
5.8786315e-05
5.8436136e-05
5.8079767e-05
5.7717299e-05
5.734883e-05
5.6974463e-05
5.6594305e-05
5.6208469e-05
5.5817068e-05
5.5420223e-05
5.5018055e-05
5.4610688e-05
5.419825e-05
5.378087e-05
5.3358678e-05
5.2931806e-05
5.2500388e-05
5.2064558e-05
5.162445e-05
5.11802e-05
5.0731942e-05
5.0279811e-05
4.9823942e-05
4.9364468e-05
4.8901521e-05
4.8435234e-05
4.7965736e-05
4.7493155e-05
4.7017619e-05
4.6539252e-05
4.6058178e-05
4.5574518e-05
4.5088388e-05
4.4599906e-05
4.4109185e-05
4.3616336e-05
4.3121466e-05
4.262468e-05
4.2126082e-05
4.1625769e-05
4.1123838e-05
4.0620383e-05
4.0115493e-05
3.9609256e-05
3.9101755e-05
3.8593072e-05
3.8083284e-05
3.7572466e-05
3.7060689e-05
3.6548022e-05
3.6034532e-05
3.552028e-05
3.5005326e-05
3.4489728e-05
3.3973539e-05
3.3456812e-05
3.2939595e-05
3.2421934e-05
3.1903873e-05
3.1385453e-05
3.0866714e-05
3.0347691e-05
2.9828419e-05
2.9308931e-05
2.8789257e-05
2.8269423e-05
2.7749458e-05
2.7229384e-05
2.6709226e-05
2.6189002e-05
2.5668734e-05
2.5148438e-05
2.462813e-05
2.4107826e-05
2.3587539e-05
2.3067281e-05
2.2547064e-05
2.2026896e-05
2.1506787e-05
2.0986745e-05
2.0466776e-05
1.9946887e-05
1.9427082e-05
1.8907367e-05
1.8387743e-05
1.7868216e-05
1.7348786e-05
1.6829455e-05
1.6310225e-05
1.5791097e-05
1.527207e-05
1.4753145e-05
1.423432e-05
1.3715596e-05
1.319697e-05
1.2678441e-05
1.2160008e-05
1.1641669e-05
1.112342e-05
1.0605261e-05
1.0087188e-05
9.5691996e-06
9.0512919e-06
8.5334626e-06
8.0157088e-06
7.4980277e-06
6.9804163e-06
6.4628717e-06
5.9453913e-06
5.4279725e-06
4.9106129e-06
4.3933107e-06
3.8760647e-06
3.3588745e-06
2.8417412e-06
2.3246692e-06
1.8076701e-06
1.2907265e-06
7.7371272e-07
2.5712379e-07
-0.00015175625
-6.1315674e-05
-3.9847578e-06
2.954524e-05
5.331511e-05
7.0216334e-05
8.1727679e-05
8.9295917e-05
9.3985268e-05
9.656504e-05
9.7619977e-05
9.7596348e-05
9.683109e-05
9.5576267e-05
9.4018054e-05
9.2291695e-05
9.0494012e-05
8.8692963e-05
8.6934956e-05
8.5250459e-05
8.3658276e-05
8.2168767e-05
8.0786275e-05
7.9510926e-05
7.8339966e-05
7.7268742e-05
7.6291424e-05
7.5401519e-05
7.4592243e-05
7.3856781e-05
7.3188464e-05
7.258089e-05
7.2027992e-05
7.1524087e-05
7.106389e-05
7.064252e-05
7.0255492e-05
6.98987e-05
6.9568401e-05
6.9261188e-05
6.8973972e-05
6.8703952e-05
6.8448597e-05
6.820562e-05
6.7972957e-05
6.7748751e-05
6.7531325e-05
6.7319175e-05
6.7110946e-05
6.6905422e-05
6.6701511e-05
6.6498235e-05
6.6294716e-05
6.6090169e-05
6.5883892e-05
6.567526e-05
6.5463714e-05
6.5248757e-05
6.5029949e-05
6.4806901e-05
6.4579268e-05
6.4346747e-05
6.4109075e-05
6.3866022e-05
6.3617389e-05
6.3363007e-05
6.3102731e-05
6.2836443e-05
6.2564043e-05
6.2285455e-05
6.2000618e-05
6.170949e-05
6.1412043e-05
6.1108265e-05
6.0798156e-05
6.0481728e-05
6.0159004e-05
5.9830019e-05
5.9494815e-05
5.9153446e-05
5.8805972e-05
5.845246e-05
5.8092985e-05
5.772763e-05
5.7356481e-05
5.6979631e-05
5.6597178e-05
5.6209224e-05
5.5815877e-05
5.5417245e-05
5.5013444e-05
5.4604589e-05
5.41908e-05
5.3772199e-05
5.334891e-05
5.2921057e-05
5.2488768e-05
5.2052171e-05
5.1611393e-05
5.1166565e-05
5.0717815e-05
5.0265273e-05
4.9809068e-05
4.9349329e-05
4.8886183e-05
4.8419757e-05
4.7950178e-05
4.7477568e-05
4.7002052e-05
4.652375e-05
4.6042781e-05
4.5559263e-05
4.507331e-05
4.4585036e-05
4.409455e-05
4.3601961e-05
4.3107373e-05
4.2610889e-05
4.2112609e-05
4.161263e-05
4.1111045e-05
4.0607947e-05
4.0103422e-05
3.9597557e-05
3.9090433e-05
3.858213e-05
3.8072724e-05
3.7562289e-05
3.7050894e-05
3.6538608e-05
3.6025495e-05
3.5511617e-05
3.4997033e-05
3.4481799e-05
3.3965968e-05
3.3449592e-05
3.2932719e-05
3.2415394e-05
3.1897661e-05
3.1379561e-05
3.0861132e-05
3.034241e-05
2.982343e-05
2.9304225e-05
2.8784823e-05
2.8265252e-05
2.774554e-05
2.722571e-05
2.6705786e-05
2.6185787e-05
2.5665733e-05
2.5145642e-05
2.4625531e-05
2.4105414e-05
2.3585305e-05
2.3065216e-05
2.2545159e-05
2.2025144e-05
2.150518e-05
2.0985274e-05
2.0465434e-05
1.9945667e-05
1.9425976e-05
1.8906368e-05
1.8386846e-05
1.7867413e-05
1.7348072e-05
1.6828825e-05
1.6309672e-05
1.5790616e-05
1.5271656e-05
1.4752793e-05
1.4234026e-05
1.3715355e-05
1.3196779e-05
1.2678295e-05
1.2159904e-05
1.1641603e-05
1.112339e-05
1.0605262e-05
1.0087219e-05
9.5692565e-06
9.0513728e-06
8.5335652e-06
8.015831e-06
7.4981674e-06
6.9805718e-06
6.4630414e-06
5.9455737e-06
5.4281662e-06
4.9108166e-06
4.3935229e-06
3.8762837e-06
3.3590978e-06
2.8419647e-06
2.3248859e-06
1.8078688e-06
1.2908879e-06
7.7378978e-07
2.5706997e-07
-0.00031097158
-9.6376165e-05
-3.1026923e-06
3.6134449e-05
5.9560852e-05
7.4745495e-05
8.4518181e-05
9.0763901e-05
9.4577181e-05
9.6637528e-05
9.7427607e-05
9.7309174e-05
9.655679e-05
9.5378892e-05
9.3930926e-05
9.2327917e-05
9.06542e-05
8.8970058e-05
8.7317498e-05
8.5724813e-05
8.4210099e-05
8.2783954e-05
8.1451532e-05
8.0214092e-05
7.907017e-05
7.8016441e-05
7.7048372e-05
7.616069e-05
7.5347731e-05
7.4603686e-05
7.392278e-05
7.3299391e-05
7.2728131e-05
7.2203897e-05
7.17219e-05
7.1277679e-05
7.08671e-05
7.0486352e-05
7.0131935e-05
6.9800644e-05
6.9489549e-05
6.9195984e-05
6.8917522e-05
6.8651958e-05
6.8397293e-05
6.8151715e-05
6.7913585e-05
6.7681421e-05
6.7453883e-05
6.7229762e-05
6.7007968e-05
6.6787517e-05
6.6567525e-05
6.6347196e-05
6.6125815e-05
6.5902739e-05
6.5677393e-05
6.5449263e-05
6.521789e-05
6.4982864e-05
6.4743822e-05
6.450044e-05
6.4252437e-05
6.3999561e-05
6.3741595e-05
6.3478352e-05
6.3209667e-05
6.2935404e-05
6.2655447e-05
6.2369701e-05
6.2078089e-05
6.1780554e-05
6.1477051e-05
6.1167554e-05
6.0852048e-05
6.0530532e-05
6.0203015e-05
5.9869518e-05
5.9530074e-05
5.9184721e-05
5.8833508e-05
5.8476494e-05
5.8113742e-05
5.7745323e-05
5.7371314e-05
5.69918e-05
5.6606869e-05
5.6216614e-05
5.5821133e-05
5.542053e-05
5.5014908e-05
5.4604379e-05
5.4189054e-05
5.3769047e-05
5.3344475e-05
5.2915458e-05
5.2482116e-05
5.2044571e-05
5.1602945e-05
5.1157362e-05
5.0707946e-05
5.0254821e-05
4.9798112e-05
4.9337941e-05
4.8874433e-05
4.8407709e-05
4.7937891e-05
4.74651e-05
4.6989453e-05
4.651107e-05
4.6030064e-05
4.554655e-05
4.5060639e-05
4.4572442e-05
4.4082064e-05
4.3589612e-05
4.3095188e-05
4.2598891e-05
4.2100819e-05
4.1601067e-05
4.1099726e-05
4.0596885e-05
4.0092631e-05
3.9587046e-05
3.9080212e-05
3.8572207e-05
3.8063104e-05
3.7552976e-05
3.7041892e-05
3.6529918e-05
3.6017119e-05
3.5503553e-05
3.498928e-05
3.4474355e-05
3.3958831e-05
3.3442757e-05
3.2926182e-05
3.240915e-05
3.1891705e-05
3.1373886e-05
3.0855732e-05
3.0337279e-05
2.9818561e-05
2.9299609e-05
2.8780454e-05
2.8261123e-05
2.7741642e-05
2.7222036e-05
2.6702327e-05
2.6182535e-05
2.5662681e-05
2.5142783e-05
2.4622855e-05
2.4102914e-05
2.3582974e-05
2.3063046e-05
2.2543143e-05
2.2023274e-05
2.1503449e-05
2.0983675e-05
2.0463961e-05
1.9944312e-05
1.9424735e-05
1.8905233e-05
1.8385811e-05
1.7866473e-05
1.7347221e-05
1.6828057e-05
1.6308984e-05
1.5790001e-05
1.5271111e-05
1.4752312e-05
1.4233606e-05
1.3714991e-05
1.3196467e-05
1.2678032e-05
1.2159686e-05
1.1641427e-05
1.1123253e-05
1.0605161e-05
1.0087151e-05
9.5692186e-06
9.0513628e-06
8.5335807e-06
8.0158698e-06
7.4982276e-06
6.9806513e-06
6.4631385e-06
5.9456865e-06
5.428293e-06
4.9109555e-06
4.3936719e-06
3.8764401e-06
3.3592581e-06
2.8421239e-06
2.3250366e-06
1.8080004e-06
1.2909865e-06
7.7382659e-07
2.5701419e-07
0.00020105845
0.0001043931
7.4469842e-05
7.3574887e-05
7.8354349e-05
8.3911943e-05
8.8869567e-05
9.2620978e-05
9.509383e-05
9.6447873e-05
9.6897779e-05
9.6654679e-05
9.590579e-05
9.4804357e-05
9.3471229e-05
9.2000679e-05
9.0463513e-05
8.8911503e-05
8.7381573e-05
8.589923e-05
8.4481319e-05
8.31382e-05
8.1875445e-05
8.0695135e-05
7.9596846e-05
7.8578407e-05
7.7636457e-05
7.6766864e-05
7.5965046e-05
7.5226189e-05
7.4545424e-05
7.3917939e-05
7.3339065e-05
7.280433e-05
7.2309495e-05
7.1850575e-05
7.1423846e-05
7.1025848e-05
7.065338e-05
7.0303488e-05
6.9973457e-05
6.96608e-05
6.9363237e-05
6.9078688e-05
6.8805254e-05
6.8541206e-05
6.8284971e-05
6.803512e-05
6.7790352e-05
6.7549491e-05
6.7311469e-05
6.7075319e-05
6.6840165e-05
6.6605217e-05
6.6369761e-05
6.6133152e-05
6.5894809e-05
6.5654211e-05
6.541089e-05
6.5164424e-05
6.4914438e-05
6.4660598e-05
6.4402606e-05
6.4140199e-05
6.3873145e-05
6.3601241e-05
6.3324311e-05
6.3042201e-05
6.2754783e-05
6.2461947e-05
6.2163603e-05
6.1859679e-05
6.1550119e-05
6.1234882e-05
6.0913941e-05
6.0587282e-05
6.0254904e-05
5.9916815e-05
5.9573036e-05
5.9223597e-05
5.8868535e-05
5.8507898e-05
5.8141739e-05
5.7770122e-05
5.7393113e-05
5.7010789e-05
5.6623228e-05
5.6230517e-05
5.5832746e-05
5.5430009e-05
5.5022404e-05
5.4610035e-05
5.4193005e-05
5.3771424e-05
5.3345402e-05
5.2915051e-05
5.2480487e-05
5.2041824e-05
5.1599182e-05
5.1152677e-05
5.0702429e-05
5.0248557e-05
4.979118e-05
4.9330417e-05
4.8866387e-05
4.8399209e-05
4.7929e-05
4.7455876e-05
4.6979951e-05
4.6501341e-05
4.6020157e-05
4.5536508e-05
4.5050505e-05
4.4562253e-05
4.4071857e-05
4.3579418e-05
4.3085037e-05
4.2588811e-05
4.2090835e-05
4.15912e-05
4.1089998e-05
4.0587314e-05
4.0083232e-05
3.9577836e-05
3.9071202e-05
3.8563408e-05
3.8054526e-05
3.7544627e-05
3.7033779e-05
3.6522046e-05
3.6009491e-05
3.5496174e-05
3.4982151e-05
3.4467477e-05
3.3952204e-05
3.343638e-05
3.2920054e-05
3.240327e-05
3.1886068e-05
3.1368491e-05
3.0850574e-05
3.0332355e-05
2.9813865e-05
2.9295137e-05
2.87762e-05
2.8257082e-05
2.7737808e-05
2.7218403e-05
2.6698888e-05
2.6179286e-05
2.5659614e-05
2.5139892e-05
2.4620134e-05
2.4100357e-05
2.3580574e-05
2.3060797e-05
2.2541038e-05
2.2021308e-05
2.1501615e-05
2.0981968e-05
2.0462375e-05
1.9942841e-05
1.9423373e-05
1.8903975e-05
1.8384652e-05
1.7865407e-05
1.7346244e-05
1.6827164e-05
1.6308169e-05
1.5789262e-05
1.5270441e-05
1.4751709e-05
1.4233065e-05
1.3714509e-05
1.319604e-05
1.2677657e-05
1.2159359e-05
1.1641144e-05
1.1123012e-05
1.060496e-05
1.0086985e-05
9.5690871e-06
9.0512627e-06
8.5335096e-06
8.0158256e-06
7.498208e-06
6.9806545e-06
6.4631624e-06
5.9457292e-06
5.4283523e-06
4.9110294e-06
4.3937578e-06
3.8765352e-06
3.3593587e-06
2.8422251e-06
2.3251321e-06
1.808082e-06
1.2910471e-06
7.7385084e-07
2.5695591e-07
0.00015730721
0.00010052418
8.1912928e-05
8.1944872e-05
8.4219656e-05
8.7117296e-05
9.0181092e-05
9.2700135e-05
9.4418558e-05
9.5361047e-05
9.5634975e-05
9.5370143e-05
9.4694106e-05
9.3720085e-05
9.2544306e-05
9.1243458e-05
8.9876526e-05
8.8487764e-05
8.7109547e-05
8.5764874e-05
8.4469487e-05
8.3233592e-05
8.2063221e-05
8.0961308e-05
7.9928506e-05
7.8963826e-05
7.8065119e-05
7.7229448e-05
7.6453359e-05
7.5733099e-05
7.5064765e-05
7.4444422e-05
7.3868186e-05
7.3332283e-05
7.2833092e-05
7.2367165e-05
7.1931253e-05
7.1522303e-05
7.1137468e-05
7.0774101e-05
7.042975e-05
7.0102148e-05
6.978921e-05
6.9489015e-05
6.9199803e-05
6.891996e-05
6.8648008e-05
6.8382597e-05
6.8122495e-05
6.7866578e-05
6.7613822e-05
6.7363293e-05
6.7114144e-05
6.6865605e-05
6.6616975e-05
6.6367621e-05
6.6116968e-05
6.5864498e-05
6.560974e-05
6.5352274e-05
6.5091718e-05
6.4827733e-05
6.4560013e-05
6.4288287e-05
6.4012314e-05
6.373188e-05
6.3446799e-05
6.3156907e-05
6.2862065e-05
6.256215e-05
6.2257064e-05
6.1946721e-05
6.1631054e-05
6.1310013e-05
6.0983558e-05
6.0651665e-05
6.0314323e-05
5.9971529e-05
5.9623295e-05
5.9269639e-05
5.8910591e-05
5.8546188e-05
5.8176476e-05
5.7801508e-05
5.7421343e-05
5.7036049e-05
5.6645697e-05
5.6250365e-05
5.5850137e-05
5.5445099e-05
5.5035343e-05
5.4620965e-05
5.4202063e-05
5.3778739e-05
5.3351098e-05
5.2919246e-05
5.2483294e-05
5.204335e-05
5.1599528e-05
5.115194e-05
5.0700701e-05
5.0245925e-05
4.9787727e-05
4.9326221e-05
4.8861522e-05
4.8393744e-05
4.7923001e-05
4.7449405e-05
4.6973068e-05
4.6494098e-05
4.6012607e-05
4.5528699e-05
4.5042482e-05
4.4554058e-05
4.4063528e-05
4.3570993e-05
4.3076549e-05
4.2580291e-05
4.2082311e-05
4.15827e-05
4.1081544e-05
4.0578929e-05
4.0074937e-05
3.9569647e-05
3.9063137e-05
3.8555481e-05
3.804675e-05
3.7537013e-05
3.7026337e-05
3.6514785e-05
3.6002418e-05
3.5489295e-05
3.4975471e-05
3.4461e-05
3.3945933e-05
3.3430318e-05
3.2914201e-05
3.2397626e-05
3.1880635e-05
3.1363266e-05
3.0845556e-05
3.0327542e-05
2.9809255e-05
2.9290726e-05
2.8771985e-05
2.8253059e-05
2.7733974e-05
2.7214753e-05
2.6695418e-05
2.6175991e-05
2.5656489e-05
2.5136931e-05
2.4617334e-05
2.4097711e-05
2.3578077e-05
2.3058445e-05
2.2538825e-05
2.2019229e-05
2.1499664e-05
2.0980141e-05
2.0460665e-05
1.9941245e-05
1.9421885e-05
1.890259e-05
1.8383366e-05
1.7864215e-05
1.7345141e-05
1.6826146e-05
1.6307232e-05
1.5788401e-05
1.5269653e-05
1.475099e-05
1.4232411e-05
1.3713916e-05
1.3195504e-05
1.2677176e-05
1.2158929e-05
1.1640763e-05
1.1122676e-05
1.0604666e-05
1.0086732e-05
9.5688711e-06
9.0510816e-06
8.5333611e-06
8.0157073e-06
7.4981179e-06
6.9805903e-06
6.463122e-06
5.9457106e-06
5.4283534e-06
4.9110477e-06
4.3937908e-06
3.8765798e-06
3.3594115e-06
2.8422819e-06
2.3251876e-06
1.8081301e-06
1.2910825e-06
7.7386614e-07
2.5692612e-07
0.00010873405
9.2268165e-05
8.4775204e-05
8.4274758e-05
8.5360393e-05
8.7169408e-05
8.9282629e-05
9.1134053e-05
9.2465413e-05
9.3240212e-05
9.350364e-05
9.3332614e-05
9.2816197e-05
9.2040993e-05
9.1082551e-05
9.0003011e-05
8.885173e-05
8.7666849e-05
8.6477113e-05
8.5303646e-05
8.4161532e-05
8.306114e-05
8.2009211e-05
8.1009715e-05
8.0064532e-05
7.9173984e-05
7.8337249e-05
7.7552681e-05
7.6818058e-05
7.6130772e-05
7.5487979e-05
7.4886704e-05
7.4323933e-05
7.379667e-05
7.3301983e-05
7.2837042e-05
7.2399136e-05
7.198569e-05
7.1594272e-05
7.1222598e-05
7.0868532e-05
7.0530085e-05
7.0205406e-05
6.9892781e-05
6.9590628e-05
6.9297482e-05
6.9011998e-05
6.8732935e-05
6.8459156e-05
6.8189615e-05
6.7923355e-05
6.7659499e-05
6.7397244e-05
6.7135859e-05
6.6874673e-05
6.6613078e-05
6.6350517e-05
6.6086486e-05
6.5820527e-05
6.5552222e-05
6.5281198e-05
6.5007113e-05
6.4729664e-05
6.4448575e-05
6.4163602e-05
6.3874526e-05
6.3581154e-05
6.3283317e-05
6.2980866e-05
6.2673673e-05
6.2361626e-05
6.2044636e-05
6.1722624e-05
6.139553e-05
6.1063307e-05
6.0725921e-05
6.038335e-05
6.0035585e-05
5.9682626e-05
5.9324484e-05
5.896118e-05
5.8592742e-05
5.8219207e-05
5.7840621e-05
5.7457035e-05
5.7068509e-05
5.6675106e-05
5.6276898e-05
5.5873959e-05
5.5466372e-05
5.505422e-05
5.4637592e-05
5.4216581e-05
5.3791284e-05
5.3361797e-05
5.2928224e-05
5.2490666e-05
5.204923e-05
5.1604023e-05
5.1155152e-05
5.0702726e-05
5.0246856e-05
4.9787652e-05
4.9325224e-05
4.8859682e-05
4.8391137e-05
4.7919698e-05
4.7445473e-05
4.696857e-05
4.6489097e-05
4.6007157e-05
4.5522856e-05
4.5036294e-05
4.4547573e-05
4.4056791e-05
4.3564044e-05
4.3069428e-05
4.2573033e-05
4.207495e-05
4.1575267e-05
4.1074068e-05
4.0571436e-05
4.0067452e-05
3.9562192e-05
3.9055733e-05
3.8548145e-05
3.80395e-05
3.7529865e-05
3.7019303e-05
3.6507878e-05
3.5995649e-05
3.5482673e-05
3.4969005e-05
3.4454696e-05
3.3939797e-05
3.3424355e-05
3.2908415e-05
3.239202e-05
3.1875211e-05
3.1358025e-05
3.08405e-05
3.032267e-05
2.9804566e-05
2.9286221e-05
2.8767661e-05
2.8248914e-05
2.7730005e-05
2.7210958e-05
2.6691794e-05
2.6172534e-05
2.5653196e-05
2.5133798e-05
2.4614356e-05
2.4094885e-05
2.3575398e-05
2.3055908e-05
2.2536427e-05
2.2016964e-05
2.1497529e-05
2.0978129e-05
2.0458774e-05
1.9939469e-05
1.942022e-05
1.8901032e-05
1.8381909e-05
1.7862856e-05
1.7343875e-05
1.6824969e-05
1.630614e-05
1.578739e-05
1.526872e-05
1.475013e-05
1.423162e-05
1.3713192e-05
1.3194843e-05
1.2676574e-05
1.2158384e-05
1.1640271e-05
1.1122234e-05
1.0604272e-05
1.0086382e-05
9.5685636e-06
9.0508136e-06
8.5331302e-06
8.0155112e-06
7.4979542e-06
6.9804568e-06
6.4630165e-06
5.9456307e-06
5.4282968e-06
4.911012e-06
4.3937734e-06
3.8765777e-06
3.3594215e-06
2.8423003e-06
2.3252103e-06
1.8081526e-06
1.2911012e-06
7.7387882e-07
2.5691578e-07
9.5178807e-05
8.9040839e-05
8.4415254e-05
8.3144642e-05
8.3604655e-05
8.4896729e-05
8.6532693e-05
8.8078537e-05
8.9291342e-05
9.009331e-05
9.0489038e-05
9.0522908e-05
9.0256737e-05
8.9754894e-05
8.9076409e-05
8.8271986e-05
8.7383423e-05
8.6444166e-05
8.5480343e-05
8.4511943e-05
8.3553944e-05
8.2617295e-05
8.1709753e-05
8.0836565e-05
8.0001027e-05
7.9204924e-05
7.8448884e-05
7.773266e-05
7.7055356e-05
7.6415599e-05
7.581168e-05
7.5241665e-05
7.4703479e-05
7.4194976e-05
7.3713985e-05
7.3258355e-05
7.2825978e-05
7.2414815e-05
7.2022909e-05
7.1648394e-05
7.1289503e-05
7.0944568e-05
7.0612025e-05
7.0290406e-05
6.9978345e-05
6.9674567e-05
6.9377891e-05
6.9087218e-05
6.8801533e-05
6.8519897e-05
6.8241445e-05
6.7965376e-05
6.7690955e-05
6.7417506e-05
6.7144407e-05
6.6871087e-05
6.6597025e-05
6.6321741e-05
6.6044799e-05
6.5765799e-05
6.548438e-05
6.5200212e-05
6.4912995e-05
6.462246e-05
6.4328364e-05
6.4030489e-05
6.3728641e-05
6.3422646e-05
6.3112352e-05
6.2797627e-05
6.2478354e-05
6.2154436e-05
6.1825788e-05
6.1492344e-05
6.1154048e-05
6.0810859e-05
6.0462747e-05
6.0109696e-05
5.9751697e-05
5.9388754e-05
5.9020879e-05
5.8648094e-05
5.8270427e-05
5.7887917e-05
5.7500607e-05
5.7108549e-05
5.6711801e-05
5.6310426e-05
5.5904494e-05
5.5494077e-05
5.5079256e-05
5.4660111e-05
5.423673e-05
5.3809202e-05
5.3377621e-05
5.2942083e-05
5.2502684e-05
5.2059525e-05
5.1612708e-05
5.1162337e-05
5.0708515e-05
5.0251347e-05
4.979094e-05
4.9327398e-05
4.886083e-05
4.8391339e-05
4.7919032e-05
4.7444014e-05
4.6966387e-05
4.6486257e-05
4.6003723e-05
4.5518887e-05
4.5031847e-05
4.4542701e-05
4.4051544e-05
4.3558469e-05
4.3063568e-05
4.2566931e-05
4.2068645e-05
4.1568794e-05
4.1067461e-05
4.0564727e-05
4.006067e-05
3.9555364e-05
3.9048883e-05
3.8541298e-05
3.8032675e-05
3.7523081e-05
3.7012579e-05
3.6501229e-05
3.598909e-05
3.5476216e-05
3.4962662e-05
3.4448477e-05
3.3933711e-05
3.341841e-05
3.2902617e-05
3.2386375e-05
3.1869723e-05
3.1352699e-05
3.0835338e-05
3.0317673e-05
2.9799738e-05
2.928156e-05
2.8763169e-05
2.8244591e-05
2.7725849e-05
2.7206968e-05
2.6687968e-05
2.616887e-05
2.5649691e-05
2.513045e-05
2.4611162e-05
2.4091841e-05
2.3572502e-05
2.3053155e-05
2.2533813e-05
2.2014485e-05
2.1495182e-05
2.097591e-05
2.0456678e-05
1.9937492e-05
1.9418357e-05
1.889928e-05
1.8380264e-05
1.7861314e-05
1.7342431e-05
1.682362e-05
1.6304882e-05
1.5786218e-05
1.5267631e-05
1.474912e-05
1.4230686e-05
1.3712329e-05
1.3194049e-05
1.2675845e-05
1.2157717e-05
1.1639663e-05
1.1121682e-05
1.0603773e-05
1.0085933e-05
9.5681618e-06
9.0504565e-06
8.5328152e-06
8.0152358e-06
7.497716e-06
6.9802534e-06
6.4628455e-06
5.9454897e-06
5.4281834e-06
4.9109237e-06
4.3937076e-06
3.8765317e-06
3.3593923e-06
2.8422849e-06
2.3252054e-06
1.8081549e-06
1.2911087e-06
7.7389339e-07
2.5692067e-07
8.763932e-05
8.420418e-05
8.0822289e-05
7.951301e-05
7.9752248e-05
8.0817142e-05
8.2273478e-05
8.3763191e-05
8.5048993e-05
8.6027708e-05
8.6676126e-05
8.7012494e-05
8.7075915e-05
8.6912929e-05
8.6569591e-05
8.6087669e-05
8.5503188e-05
8.4846198e-05
8.4141179e-05
8.34077e-05
8.266115e-05
8.191344e-05
8.1173624e-05
8.0448435e-05
7.9742732e-05
7.9059878e-05
7.840204e-05
7.7770444e-05
7.7165579e-05
7.658736e-05
7.6035268e-05
7.5508458e-05
7.5005845e-05
7.452618e-05
7.4068103e-05
7.363019e-05
7.3210989e-05
7.2809043e-05
7.2422917e-05
7.2051211e-05
7.1692569e-05
7.1345692e-05
7.100934e-05
7.0682333e-05
7.0363559e-05
7.0051967e-05
6.9746572e-05
6.9446451e-05
6.9150738e-05
6.8858629e-05
6.8569372e-05
6.828227e-05
6.7996674e-05
6.7711983e-05
6.742764e-05
6.7143132e-05
6.6857982e-05
6.6571752e-05
6.6284039e-05
6.5994473e-05
6.5702714e-05
6.540845e-05
6.5111398e-05
6.48113e-05
6.4507921e-05
6.4201049e-05
6.3890494e-05
6.3576084e-05
6.3257668e-05
6.2935111e-05
6.2608296e-05
6.2277121e-05
6.19415e-05
6.1601358e-05
6.1256636e-05
6.0907287e-05
6.0553276e-05
6.0194578e-05
5.9831179e-05
5.9463076e-05
5.9090274e-05
5.8712787e-05
5.8330638e-05
5.7943858e-05
5.7552483e-05
5.715656e-05
5.6756138e-05
5.6351274e-05
5.5942031e-05
5.5528476e-05
5.5110682e-05
5.4688726e-05
5.4262687e-05
5.383265e-05
5.3398701e-05
5.2960933e-05
5.2519435e-05
5.2074305e-05
5.1625637e-05
5.1173532e-05
5.0718087e-05
5.0259403e-05
4.9797582e-05
4.9332725e-05
4.8864934e-05
4.839431e-05
4.7920955e-05
4.744497e-05
4.6966454e-05
4.6485507e-05
4.6002227e-05
4.5516711e-05
4.5029055e-05
4.4539351e-05
4.4047693e-05
4.3554171e-05
4.3058873e-05
4.2561886e-05
4.2063294e-05
4.1563179e-05
4.1061622e-05
4.05587e-05
4.0054489e-05
3.9549062e-05
3.9042488e-05
3.8534838e-05
3.8026176e-05
3.7516567e-05
3.700607e-05
3.6494746e-05
3.598265e-05
3.5469836e-05
3.4956356e-05
3.444226e-05
3.3927594e-05
3.3412403e-05
3.289673e-05
3.2380616e-05
3.18641e-05
3.1347217e-05
3.0830003e-05
3.031249e-05
2.9794708e-05
2.9276688e-05
2.8758456e-05
2.8240037e-05
2.7721456e-05
2.7202735e-05
2.6683896e-05
2.6164956e-05
2.5645936e-05
2.512685e-05
2.4607716e-05
2.4088546e-05
2.3569355e-05
2.3050154e-05
2.2530955e-05
2.2011766e-05
2.1492598e-05
2.0973458e-05
2.0454354e-05
1.9935293e-05
1.9416279e-05
1.8897318e-05
1.8378415e-05
1.7859573e-05
1.7340796e-05
1.6822086e-05
1.6303444e-05
1.5784874e-05
1.5266376e-05
1.4747951e-05
1.4229599e-05
1.3711321e-05
1.3193116e-05
1.2674984e-05
1.2156923e-05
1.1638935e-05
1.1121015e-05
1.0603165e-05
1.0085381e-05
9.567663e-06
9.0500079e-06
8.5324142e-06
8.0148797e-06
7.4974022e-06
6.9799794e-06
6.4626089e-06
5.945288e-06
5.428014e-06
4.9107841e-06
4.3935953e-06
3.8764441e-06
3.3593268e-06
2.842239e-06
2.3251766e-06
1.8081407e-06
1.2911083e-06
7.7391167e-07
2.5694021e-07
8.2578277e-05
7.9193003e-05
7.5707069e-05
7.4213002e-05
7.4297746e-05
7.5291869e-05
7.6782449e-05
7.8412939e-05
7.9932652e-05
8.1216855e-05
8.2219391e-05
8.2937506e-05
8.3392912e-05
8.3618811e-05
8.3651663e-05
8.3526777e-05
8.3276205e-05
8.2927902e-05
8.2505606e-05
8.2029089e-05
8.151458e-05
8.0975228e-05
8.042156e-05
7.9861899e-05
7.930273e-05
7.8749021e-05
7.8204492e-05
7.7671845e-05
7.7152952e-05
7.6649018e-05
7.6160716e-05
7.5688296e-05
7.5231675e-05
7.4790519e-05
7.4364297e-05
7.3952338e-05
7.3553871e-05
7.3168054e-05
7.2794006e-05
7.2430825e-05
7.2077603e-05
7.1733441e-05
7.1397459e-05
7.1068799e-05
7.0746635e-05
7.0430173e-05
7.0118654e-05
6.9811356e-05
6.9507596e-05
6.9206726e-05
6.8908136e-05
6.861125e-05
6.831553e-05
6.8020468e-05
6.7725592e-05
6.743046e-05
6.7134657e-05
6.6837802e-05
6.6539536e-05
6.6239529e-05
6.5937475e-05
6.5633091e-05
6.5326117e-05
6.5016314e-05
6.4703463e-05
6.4387365e-05
6.4067839e-05
6.3744721e-05
6.3417864e-05
6.3087137e-05
6.2752424e-05
6.2413623e-05
6.2070645e-05
6.1723417e-05
6.1371874e-05
6.1015966e-05
6.0655653e-05
6.0290906e-05
5.9921706e-05
5.9548043e-05
5.9169918e-05
5.8787338e-05
5.840032e-05
5.8008888e-05
5.7613074e-05
5.7212915e-05
5.6808458e-05
5.6399751e-05
5.5986852e-05
5.5569821e-05
5.5148726e-05
5.4723637e-05
5.4294628e-05
5.3861778e-05
5.3425169e-05