/*--------------------------------*- C++ -*----------------------------------*\
| =========                 |                                                 |
| \\      /  F ield         | OpenFOAM: The Open Source CFD Toolbox           |
|  \\    /   O peration     | Version:  2406                                  |
|   \\  /    A nd           | Website:  www.openfoam.com                      |
|    \\/     M anipulation  |                                                 |
\*---------------------------------------------------------------------------*/
FoamFile
{
    version     2.0;
    format      ascii;
    arch        "LSB;label=32;scalar=64";
    class       surfaceScalarField;
    location    "1104";
    object      phi;
}
// * * * * * * * * * * * * * * * * * * * * * * * * * * * * * * * * * * * * * //

dimensions      [0 3 -1 0 0 0 0];

oriented        oriented;

internalField   nonuniform List<scalar> 
14962
(
-2.4423899e-14
2.4423899e-14
-6.4502198e-14
4.0078299e-14
-9.6042718e-14
3.1540521e-14
-1.0769473e-13
1.1652013e-14
-9.8555647e-14
-9.1390842e-15
-7.2807377e-14
-2.5748269e-14
-3.6178895e-14
-3.6628482e-14
5.9638572e-15
-4.2142753e-14
4.9394696e-14
-4.3430839e-14
9.1162685e-14
-4.1767989e-14
1.2943456e-13
-3.8271876e-14
1.6323989e-13
-3.3805327e-14
1.9221956e-13
-2.897967e-14
2.16417e-13
-2.4197443e-14
2.3612033e-13
-1.9703328e-14
2.5175041e-13
-1.5630077e-14
2.6378547e-13
-1.2035059e-14
2.727128e-13
-8.9273324e-15
2.7899955e-13
-6.2867503e-15
2.8307649e-13
-4.076942e-15
2.8533034e-13
-2.2538542e-15
2.8610152e-13
-7.7117305e-16
2.8568513e-13
4.1638556e-16
2.8433389e-13
1.3512435e-15
2.8226194e-13
2.0719485e-15
2.7964914e-13
2.6128045e-15
2.7664525e-13
3.003886e-15
2.73374e-13
3.2712532e-15
2.6993672e-13
3.4372788e-15
2.6641569e-13
3.5210239e-15
2.6287707e-13
3.538623e-15
2.5937341e-13
3.5036564e-15
2.5594592e-13
3.4274961e-15
2.526263e-13
3.3196196e-15
2.4943841e-13
3.1878891e-15
2.4639961e-13
3.0387964e-15
2.4352194e-13
2.8776757e-15
2.4081305e-13
2.7088872e-15
2.3827708e-13
2.5359739e-15
2.3591528e-13
2.3617954e-15
2.3372664e-13
2.1886406e-15
2.3170832e-13
2.0183239e-15
2.2985605e-13
1.8522654e-15
2.2816449e-13
1.6915584e-15
2.2662747e-13
1.5370261e-15
2.252382e-13
1.3892688e-15
2.2398949e-13
1.2487036e-15
2.228739e-13
1.115597e-15
2.218838e-13
9.900927e-16
2.2101157e-13
8.7223399e-16
2.2024959e-13
7.6198317e-16
2.1959035e-13
6.5923696e-16
2.1902651e-13
5.6383991e-16
2.1855092e-13
4.7559504e-16
2.1815664e-13
3.9427319e-16
2.1783702e-13
3.1962029e-16
2.1758566e-13
2.5136393e-16
2.1739644e-13
1.8921835e-16
2.1726355e-13
1.328891e-16
2.1718147e-13
8.2076363e-17
2.17145e-13
3.6478393e-17
2.171492e-13
-4.2062845e-18
2.1718948e-13
-4.0276405e-17
2.172615e-13
-7.2026534e-17
2.1736125e-13
-9.9745208e-17
2.1748496e-13
-1.2371402e-16
2.1762917e-13
-1.4420629e-16
2.1779066e-13
-1.6148658e-16
2.1796647e-13
-1.7580974e-16
2.1815389e-13
-1.8742065e-16
2.1835044e-13
-1.9655359e-16
2.1855387e-13
-2.0343214e-16
2.1876214e-13
-2.0826885e-16
2.189734e-13
-2.1126521e-16
2.1918602e-13
-2.1261161e-16
2.193985e-13
-2.1248735e-16
2.1960956e-13
-2.1106087e-16
2.1981805e-13
-2.084897e-16
2.2002297e-13
-2.0492094e-16
2.2022346e-13
-2.0049122e-16
2.2041879e-13
-1.9532728e-16
2.2060834e-13
-1.8954597e-16
2.2079159e-13
-1.8325496e-16
2.2096814e-13
-1.7655269e-16
2.2113767e-13
-1.6952921e-16
2.2129994e-13
-1.6226604e-16
2.2145478e-13
-1.5483721e-16
2.2160208e-13
-1.4730894e-16
2.2174182e-13
-1.3974083e-16
2.2187401e-13
-1.3218547e-16
2.219987e-13
-1.2468967e-16
2.2211599e-13
-1.1729403e-16
2.2222603e-13
-1.1003416e-16
2.2232897e-13
-1.0294025e-16
2.2242501e-13
-9.6038274e-17
2.2251436e-13
-8.9349499e-17
2.2259725e-13
-8.2891731e-17
2.2267393e-13
-7.6678726e-17
2.2274465e-13
-7.0721446e-17
2.2280968e-13
-6.502745e-17
2.2286928e-13
-5.9602079e-17
2.2292373e-13
-5.4447869e-17
2.2297329e-13
-4.9565642e-17
2.2301825e-13
-4.4953965e-17
2.2305886e-13
-4.0610113e-17
2.2309539e-13
-3.6529612e-17
2.2312809e-13
-3.2707041e-17
2.2315723e-13
-2.913569e-17
2.2318304e-13
-2.5808177e-17
2.2320575e-13
-2.2716241e-17
2.2322561e-13
-1.9851164e-17
2.2324281e-13
-1.7203711e-17
2.2325758e-13
-1.4764345e-17
2.232701e-13
-1.2523335e-17
2.2328057e-13
-1.0470753e-17
2.2328917e-13
-8.5967503e-18
2.2329606e-13
-6.8913522e-18
2.233014e-13
-5.344894e-18
2.2330535e-13
-3.9476191e-18
2.2330804e-13
-2.6902717e-18
2.2330961e-13
-1.563516e-18
2.2331017e-13
-5.5866676e-19
2.2330983e-13
3.3304624e-19
2.2330871e-13
1.1196326e-18
2.2330691e-13
1.8091999e-18
2.233045e-13
2.4090221e-18
2.2330157e-13
2.9264895e-18
2.232982e-13
3.3681185e-18
2.2329446e-13
3.7405578e-18
2.2329041e-13
4.0495731e-18
2.2328611e-13
4.3010743e-18
2.2328161e-13
4.5001085e-18
2.2327696e-13
4.6518709e-18
2.232722e-13
4.7607379e-18
2.2326737e-13
4.8312295e-18
2.232625e-13
4.8671102e-18
2.2325763e-13
4.8722729e-18
2.2325278e-13
4.8499352e-18
2.2324798e-13
4.8034184e-18
2.2324324e-13
4.7354591e-18
2.2323859e-13
4.6488649e-18
2.2323404e-13
4.545957e-18
2.2322962e-13
4.4290876e-18
2.2322531e-13
4.300223e-18
2.2322115e-13
4.1613165e-18
2.2321714e-13
4.0140351e-18
2.2321328e-13
3.8599858e-18
2.2320958e-13
3.7005844e-18
2.2320604e-13
3.5371402e-18
2.2320267e-13
3.3708589e-18
2.2319947e-13
3.202795e-18
2.2319643e-13
3.0339774e-18
2.2319357e-13
2.865244e-18
2.2319087e-13
2.6974737e-18
2.2318834e-13
2.5313199e-18
2.2318597e-13
2.3675319e-18
2.2318376e-13
2.2066066e-18
2.2318171e-13
2.0491787e-18
2.2317982e-13
1.8956122e-18
2.2317807e-13
1.7464377e-18
2.2317647e-13
1.601906e-18
2.2317501e-13
1.462452e-18
2.2317368e-13
1.3282292e-18
2.2317248e-13
1.1995824e-18
2.231714e-13
1.0765824e-18
2.2317044e-13
9.5948853e-19
2.2316959e-13
8.483007e-19
2.2316885e-13
7.4319699e-19
2.2316821e-13
6.4411741e-19
2.2316765e-13
5.5116345e-19
2.2316719e-13
4.642246e-19
2.2316681e-13
3.8333104e-19
2.231665e-13
3.0833083e-19
2.2316626e-13
2.3918887e-19
2.2316608e-13
1.7572002e-19
2.2316597e-13
1.1783093e-19
2.231659e-13
6.5311142e-20
2.2316588e-13
1.8016594e-20
2.2316591e-13
-2.4281488e-20
2.2316597e-13
-6.1770023e-20
2.2316606e-13
-9.4690215e-20
2.2316619e-13
-1.2326506e-19
2.2316634e-13
-1.4774493e-19
2.231665e-13
-1.6838505e-19
2.2316669e-13
-1.8544711e-19
2.2316689e-13
-1.9922256e-19
2.231671e-13
-2.0999888e-19
2.2316732e-13
-2.1812634e-19
2.2316754e-13
-2.239624e-19
2.2316777e-13
-2.2798547e-19
2.23168e-13
-2.3074123e-19
2.2316823e-13
-2.3302499e-19
2.2316847e-13
-2.3588189e-19
2.2316871e-13
-2.4092751e-19
2.2316896e-13
-2.5052596e-19
2.2316923e-13
-2.6837954e-19
2.2316953e-13
-2.9972858e-19
2.2316988e-13
-3.5226009e-19
2.2317032e-13
-4.4230394e-19
-5.7482665e-19
-4.9620293e-14
7.4044192e-14
-1.1940909e-13
1.098671e-13
-1.6332795e-13
7.5459378e-14
-1.6423164e-13
1.2555698e-14
-1.2310483e-13
-5.0265887e-14
-4.9591817e-14
-9.9261286e-14
4.4397298e-14
-1.306176e-13
1.4802881e-13
-1.4577426e-13
2.5284052e-13
-1.4824256e-13
3.5291025e-13
-1.4183772e-13
4.4451722e-13
-1.2987884e-13
5.2565252e-13
-1.1494063e-13
5.9554217e-13
-9.8869328e-14
6.5424778e-13
-8.290305e-14
7.0235897e-13
-6.7814515e-14
7.4076935e-13
-5.4040456e-14
7.7052024e-13
-4.1785954e-14
7.9269605e-13
-3.1103138e-14
8.083573e-13
-2.1947999e-14
8.185004e-13
-1.4220048e-14
8.2403578e-13
-7.7892362e-15
8.257783e-13
-2.5136897e-15
8.2444568e-13
1.7490057e-15
8.2066186e-13
5.1350658e-15
8.1496331e-13
7.7704969e-15
8.0780688e-13
9.7692333e-15
7.9957818e-13
1.1232589e-14
7.9059992e-13
1.2249507e-14
7.8113993e-13
1.2897273e-14
7.7141847e-13
1.3242481e-14
7.6161499e-13
1.3342109e-14
7.5187404e-13
1.3244603e-14
7.4231061e-13
1.299093e-14
7.3301467e-13
1.2615555e-14
7.2405523e-13
1.2147332e-14
7.1548373e-13
1.1610301e-14
7.0733701e-13
1.1024392e-14
6.9963985e-13
1.0406045e-14
6.9240709e-13
9.768738e-15
6.8564543e-13
9.1234537e-15
6.79355e-13
8.4790718e-15
6.7353061e-13
7.8427073e-15
6.6816288e-13
7.2199968e-15
6.632391e-13
6.6153421e-15
6.5874401e-13
6.0321158e-15
6.5466044e-13
5.4728341e-15
6.5096984e-13
4.9393039e-15
6.476527e-13
4.4327444e-15
6.446889e-13
3.9538912e-15
6.4205805e-13
3.5030819e-15
6.397397e-13
3.0803291e-15
6.3771356e-13
2.6853808e-15
6.3595963e-13
2.3177713e-15
6.3445836e-13
1.9768637e-15
6.3319075e-13
1.6618857e-15
6.3213841e-13
1.3719591e-15
6.3128365e-13
1.1061253e-15
6.306095e-13
8.6336586e-16
6.3009977e-13
6.4262056e-16
6.2973904e-13
4.4280186e-16
6.2951271e-13
2.628075e-16
6.2940697e-13
1.0153095e-16
6.2940883e-13
-4.2129809e-17
6.2950607e-13
-1.6926496e-16
6.2968727e-13
-2.8094668e-16
6.2994178e-13
-3.7822392e-16
6.3025969e-13
-4.6211814e-16
6.3063182e-13
-5.3361993e-16
6.310497e-13
-5.9368615e-16
6.3150551e-13
-6.4323776e-16
6.3199212e-13
-6.8315795e-16
6.3250297e-13
-7.1429086e-16
6.3303215e-13
-7.3744069e-16
6.3357425e-13
-7.5337109e-16
6.3412444e-13
-7.6280491e-16
6.3467838e-13
-7.6642433e-16
6.3523219e-13
-7.6487099e-16
6.3578245e-13
-7.587466e-16
6.3632614e-13
-7.4861355e-16
6.3686064e-13
-7.3499582e-16
6.3738369e-13
-7.1837986e-16
6.3789336e-13
-6.9921586e-16
6.3838803e-13
-6.7791878e-16
6.3886634e-13
-6.5486983e-16
6.3932723e-13
-6.3041769e-16
6.3976984e-13
-6.0488008e-16
6.4019355e-13
-5.7854505e-16
6.4059791e-13
-5.5167269e-16
6.4098267e-13
-5.244964e-16
6.4134771e-13
-4.9722462e-16
6.4169306e-13
-4.7004215e-16
6.4201888e-13
-4.431118e-16
6.4232542e-13
-4.1657568e-16
6.4261304e-13
-3.9055685e-16
6.4288216e-13
-3.6516048e-16
6.4313329e-13
-3.4047544e-16
6.4336697e-13
-3.1657542e-16
6.4358381e-13
-2.9352035e-16
6.4378445e-13
-2.7135746e-16
6.4396954e-13
-2.501226e-16
6.4413978e-13
-2.2984118e-16
6.4429586e-13
-2.1052938e-16
6.4443849e-13
-1.9219496e-16
6.4456838e-13
-1.7483837e-16
6.4468622e-13
-1.5845347e-16
6.4479272e-13
-1.4302844e-16
6.4488856e-13
-1.2854652e-16
6.4497442e-13
-1.1498668e-16
6.4505093e-13
-1.0232433e-16
6.4511875e-13
-9.0531872e-17
6.4517848e-13
-7.9579296e-17
6.4523071e-13
-6.9434626e-17
6.4527601e-13
-6.006446e-17
6.4531493e-13
-5.143428e-17
6.4534796e-13
-4.3508948e-17
6.4537562e-13
-3.6252898e-17
6.4539836e-13
-2.9630593e-17
6.4541663e-13
-2.3606604e-17
6.4543082e-13
-1.8146034e-17
6.4544135e-13
-1.3214507e-17
6.4544857e-13
-8.778553e-18
6.4545281e-13
-4.8055239e-18
6.4545441e-13
-1.2639416e-18
6.4545366e-13
1.8766463e-18
6.4545082e-13
4.6453519e-18
6.4544616e-13
7.0701374e-18
6.4543991e-13
9.1775358e-18
6.4543228e-13
1.0992868e-17
6.4542348e-13
1.254e-17
6.4541369e-13
1.3841572e-17
6.4540308e-13
1.4918796e-17
6.4539178e-13
1.5791693e-17
6.4537996e-13
1.647892e-17
6.4536772e-13
1.6998e-17
6.4535519e-13
1.7365192e-17
6.4534246e-13
1.759569e-17
6.4532962e-13
1.7703545e-17
6.4531677e-13
1.770183e-17
6.4530397e-13
1.7602594e-17
6.4529129e-13
1.7417004e-17
6.4527878e-13
1.7155332e-17
6.452665e-13
1.6827059e-17
6.4525449e-13
1.6440895e-17
6.4524278e-13
1.6004846e-17
6.4523142e-13
1.5526269e-17
6.4522042e-13
1.5011896e-17
6.4520981e-13
1.4467917e-17
6.4519961e-13
1.3899972e-17
6.4518983e-13
1.3313253e-17
6.4518049e-13
1.2712468e-17
6.4517159e-13
1.2101956e-17
6.4516314e-13
1.148563e-17
6.4515514e-13
1.0867101e-17
6.4514758e-13
1.0249601e-17
6.4514048e-13
9.6361167e-18
6.4513382e-13
9.0292951e-18
6.4512759e-13
8.4315804e-18
6.451218e-13
7.8451123e-18
6.4511642e-13
7.2718597e-18
6.4511145e-13
6.7135176e-18
6.4510688e-13
6.1716337e-18
6.451027e-13
5.6475083e-18
6.4509888e-13
5.1423114e-18
6.4509542e-13
4.6569904e-18
6.4509231e-13
4.1923744e-18
6.4508952e-13
3.7490927e-18
6.4508704e-13
3.3276656e-18
6.4508485e-13
2.9284356e-18
6.4508295e-13
2.551644e-18
6.450813e-13
2.1973758e-18
6.450799e-13
1.8656216e-18
6.4507873e-13
1.5562382e-18
6.4507777e-13
1.2689943e-18
6.45077e-13
1.0035469e-18
6.4507642e-13
7.5947257e-19
6.45076e-13
5.3625757e-19
6.4507573e-13
3.3331625e-19
6.450756e-13
1.4999283e-19
6.4507559e-13
-1.4431517e-20
6.4507569e-13
-1.6072726e-19
6.4507588e-13
-2.8972043e-19
6.4507616e-13
-4.0227424e-19
6.4507652e-13
-4.9930381e-19
6.4507693e-13
-5.8175531e-19
6.4507739e-13
-6.5063285e-19
6.450779e-13
-7.0698188e-19
6.4507844e-13
-7.5193389e-19
6.4507901e-13
-7.8670701e-19
6.450796e-13
-8.1268282e-19
6.4508021e-13
-8.3144925e-19
6.4508082e-13
-8.4494176e-19
6.4508144e-13
-8.5557814e-19
6.4508207e-13
-8.6652454e-19
6.4508271e-13
-8.8200004e-19
6.4508337e-13
-9.0772342e-19
6.4508405e-13
-9.5125136e-19
6.4508478e-13
-1.0218875e-18
6.4508555e-13
-1.1300147e-18
6.450864e-13
-1.284317e-18
-1.452748e-18
-5.9512432e-14
1.3355662e-13
-1.234971e-13
1.7385177e-13
-1.3893201e-13
9.0894294e-14
-9.5602345e-14
-3.0773972e-14
-2.8600194e-15
-1.4300821e-13
1.2360635e-13
-2.2572765e-13
2.6836567e-13
-2.7537692e-13
4.188722e-13
-2.9628079e-13
5.6598709e-13
-2.9535745e-13
7.0362588e-13
-2.7947651e-13
8.2814177e-13
-2.5439473e-13
9.3770418e-13
-2.2450304e-13
1.0317689e-12
-1.9293409e-13
1.1106603e-12
-1.6179441e-13
1.175256e-12
-1.3241023e-13
1.2267576e-12
-1.0554201e-13
1.2665271e-12
-8.1555484e-14
1.295975e-12
-6.0551061e-14
1.3164853e-12
-4.245827e-14
1.3293681e-12
-2.7102873e-14
1.3358323e-12
-1.4253451e-14
1.3369716e-12
-3.6529475e-15
1.33376e-12
4.9606241e-15
1.3270538e-12
1.1841195e-14
1.3175978e-12
1.7226538e-14
1.3060329e-12
2.1334129e-14
1.2929061e-12
2.4359439e-14
1.2786798e-12
2.64758e-14
1.2637418e-12
2.7835265e-14
1.2484142e-12
2.8570034e-14
1.2329621e-12
2.8794182e-14
1.2176013e-12
2.86055e-14
1.2025049e-12
2.808733e-14
1.1878101e-12
2.7310315e-14
1.1736234e-12
2.6334034e-14
1.1600252e-12
2.5208478e-14
1.1470742e-12
2.3975387e-14
1.1348108e-12
2.2669423e-14
1.1232604e-12
2.1319211e-14
1.1124356e-12
1.9948235e-14
1.102339e-12
1.8575624e-14
1.0929649e-12
1.7216824e-14
1.0843007e-12
1.5884174e-14
1.0763287e-12
1.4587402e-14
1.0690268e-12
1.3334043e-14
1.0623698e-12
1.21298e-14
1.0563302e-12
1.0978845e-14
1.0508789e-12
9.8840752e-15
1.0459855e-12
8.8473311e-15
1.041619e-12
7.8695801e-15
1.0377482e-12
6.9510697e-15
1.0343422e-12
6.0914585e-15
1.03137e-12
5.2899255e-15
1.0288016e-12
4.5452625e-15
1.0266075e-12
3.855952e-15
1.0247593e-12
3.2202326e-15
1.0232292e-12
2.6361539e-15
1.021991e-12
2.1016236e-15
1.0210192e-12
1.6144464e-15
1.0202896e-12
1.1723572e-15
1.0197794e-12
7.7304875e-16
1.0194667e-12
4.1419578e-16
1.0193311e-12
9.3474382e-17
1.0193532e-12
-1.9142098e-16
1.0195151e-12
-4.427637e-16
1.0197996e-12
-6.6278293e-16
1.0201912e-12
-8.5365393e-16
1.020675e-12
-1.01749e-15
1.0212377e-12
-1.1563362e-15
1.0218666e-12
-1.2721636e-15
1.0225503e-12
-1.3668656e-15
1.0232783e-12
-1.4422544e-15
1.0240409e-12
-1.5000586e-15
1.0248294e-12
-1.5419222e-15
1.025636e-12
-1.5694033e-15
1.0264536e-12
-1.5839743e-15
1.0272757e-12
-1.5870221e-15
1.0280968e-12
-1.5798489e-15
1.0289119e-12
-1.5636737e-15
1.0297165e-12
-1.5396339e-15
1.0305069e-12
-1.508787e-15
1.0312798e-12
-1.4721131e-15
1.0320324e-12
-1.4305174e-15
1.0327624e-12
-1.3848329e-15
1.0334678e-12
-1.3358229e-15
1.0341471e-12
-1.2841845e-15
1.0347991e-12
-1.2305511e-15
1.0354229e-12
-1.1754958e-15
1.036018e-12
-1.1195349e-15
1.0365839e-12
-1.0631302e-15
1.0371205e-12
-1.0066931e-15
1.037628e-12
-9.5058708e-16
1.0381066e-12
-8.9513114e-16
1.0385566e-12
-8.4060278e-16
1.0389787e-12
-7.8724085e-16
1.0393735e-12
-7.3524862e-16
1.0397417e-12
-6.8479639e-16
1.0400842e-12
-6.3602435e-16
1.0404019e-12
-5.8904504e-16
1.0406957e-12
-5.4394591e-16
1.0409666e-12
-5.0079161e-16
1.0412157e-12
-4.5962632e-16
1.041444e-12
-4.2047578e-16
1.0416525e-12
-3.8334933e-16
1.0418423e-12
-3.4824181e-16
1.0420144e-12
-3.151353e-16
1.0421699e-12
-2.8400075e-16
1.0423097e-12
-2.5479955e-16
1.0424349e-12
-2.2748488e-16
1.0425463e-12
-2.0200312e-16
1.0426451e-12
-1.7829493e-16
1.0427319e-12
-1.5629644e-16
1.0428078e-12
-1.3594024e-16
1.0428735e-12
-1.1715622e-16
1.0429299e-12
-9.9872482e-17
1.0429776e-12
-8.4016003e-17
1.0430175e-12
-6.9513341e-17
1.0430502e-12
-5.6291156e-17
1.0430763e-12
-4.4276787e-17
1.0430965e-12
-3.3398611e-17
1.0431113e-12
-2.358651e-17
1.0431213e-12
-1.4772096e-17
1.0431269e-12
-6.8890783e-18
1.0431287e-12
1.2662796e-19
1.043127e-12
6.3366152e-18
1.0431223e-12
1.1799972e-17
1.0431149e-12
1.6573073e-17
1.0431052e-12
2.0709635e-17
1.0430934e-12
2.4260564e-17
1.04308e-12
2.7274076e-17
1.0430651e-12
2.9795591e-17
1.043049e-12
3.18679e-17
1.043032e-12
3.3531108e-17
1.0430142e-12
3.482281e-17
1.0429958e-12
3.577808e-17
1.0429769e-12
3.6429655e-17
1.0429578e-12
3.6807952e-17
1.0429386e-12
3.6941254e-17
1.0429193e-12
3.6855745e-17
1.0429002e-12
3.6575691e-17
1.0428812e-12
3.6123495e-17
1.0428625e-12
3.5519856e-17
1.0428442e-12
3.478384e-17
1.0428262e-12
3.393302e-17
1.0428088e-12
3.2983554e-17
1.0427918e-12
3.1950296e-17
1.0427755e-12
3.0846892e-17
1.0427597e-12
2.9685857e-17
1.0427445e-12
2.8478673e-17
1.04273e-12
2.7235849e-17
1.0427161e-12
2.5967014e-17
1.0427029e-12
2.4680955e-17
1.0426904e-12
2.3385712e-17
1.0426786e-12
2.2088591e-17
1.0426674e-12
2.079626e-17
1.0426569e-12
1.9514745e-17
1.0426471e-12
1.8249524e-17
1.0426379e-12
1.7005505e-17
1.0426294e-12
1.5787117e-17
1.0426215e-12
1.4598286e-17
1.0426143e-12
1.3442512e-17
1.0426076e-12
1.2322842e-17
1.0426015e-12
1.1241944e-17
1.0425959e-12
1.0202076e-17
1.0425909e-12
9.205156e-18
1.0425864e-12
8.2527294e-18
1.0425824e-12
7.3460345e-18
1.0425788e-12
6.4859727e-18
1.0425757e-12
5.6731686e-18
1.042573e-12
4.9079449e-18
1.0425707e-12
4.1903759e-18
1.0425687e-12
3.5202693e-18
1.0425671e-12
2.8972128e-18
1.0425658e-12
2.3205631e-18
1.0425647e-12
1.7894857e-18
1.042564e-12
1.3029511e-18
1.0425635e-12
8.5976739e-19
1.0425631e-12
4.5858288e-19
1.042563e-12
9.7911242e-20
1.0425631e-12
-2.2386101e-19
1.0425633e-12
-5.0845798e-19
1.0425637e-12
-7.5770496e-19
1.0425641e-12
-9.7352311e-19
1.0425647e-12
-1.1579234e-18
1.0425654e-12
-1.3130172e-18
1.0425661e-12
-1.4410223e-18
1.0425669e-12
-1.5443008e-18
1.0425678e-12
-1.6253951e-18
1.0425686e-12
-1.6871131e-18
1.0425695e-12
-1.7326241e-18
1.0425704e-12
-1.7656262e-18
1.0425714e-12
-1.7905404e-18
1.0425723e-12
-1.8127878e-18
1.0425733e-12
-1.8390657e-18
1.0425743e-12
-1.8775872e-18
1.0425752e-12
-1.9379251e-18
1.0425763e-12
-2.0298885e-18
1.0425773e-12
-2.1606017e-18
1.0425783e-12
-2.3265525e-18
-2.4801335e-18
-5.8110817e-14
1.9166744e-13
-8.1738964e-14
1.9747991e-13
-2.6313232e-14
3.5468562e-14
9.6315611e-14
-1.5340281e-13
2.6163575e-13
-3.0832835e-13
4.4765345e-13
-4.1174535e-13
6.3828919e-13
-4.6601266e-13
8.2294276e-13
-4.8093435e-13
9.9512032e-13
-4.6753501e-13
1.151159e-12
-4.355152e-13
1.2892963e-12
-3.9253204e-13
1.409038e-12
-3.4424468e-13
1.5107319e-12
-2.94628e-13
1.5952758e-12
-2.4633838e-13
1.6639114e-12
-2.0104579e-13
1.7180755e-12
-1.5970612e-13
1.7592931e-12
-1.2277305e-13
1.7890997e-12
-9.0357629e-14
1.8089871e-12
-6.2345758e-14
1.8203673e-12
-3.8483044e-14
1.8245489e-12
-1.8435019e-14
1.822725e-12
-1.8290292e-15
1.815968e-12
1.1717605e-14
1.8052304e-12
2.2578811e-14
1.791349e-12
3.1107937e-14
1.7750519e-12
3.7631198e-14
1.7569668e-12
4.2444509e-14
1.73763e-12
4.5812629e-14
1.7174954e-12
4.796982e-14
1.696944e-12
4.9121452e-14
1.676292e-12
4.9446162e-14
1.6557993e-12
4.9098265e-14
1.6356764e-12
4.8210253e-14
1.6160914e-12
4.6895236e-14
1.5971762e-12
4.5249269e-14
1.5790312e-12
4.3353498e-14
1.5617305e-12
4.1276116e-14
1.5453258e-12
3.9074125e-14
1.5298501e-12
3.6794897e-14
1.5153208e-12
3.447755e-14
1.5017422e-12
3.2154154e-14
1.4891083e-12
2.9850776e-14
1.4774041e-12
2.7588391e-14
1.4666078e-12
2.5383664e-14
1.4566922e-12
2.3249617e-14
1.4476258e-12
2.1196207e-14
1.4393738e-12
1.9230821e-14
1.4318992e-12
1.7358687e-14
1.4251633e-12
1.5583238e-14
1.4191265e-12
1.390641e-14
1.4137487e-12
1.2328902e-14
1.4089897e-12
1.085039e-14
1.4048099e-12
9.4697167e-15
1.4011701e-12
8.1850424e-15
1.3980321e-12
6.9939817e-15
1.3953586e-12
5.8937133e-15
1.3931137e-12
4.8810757e-15
1.3912627e-12
3.952647e-15
1.3897723e-12
3.1048137e-15
1.3886109e-12
2.3338279e-15
1.387748e-12
1.6358562e-15
1.3871552e-12
1.0070215e-15
1.3868053e-12
4.4343749e-16
1.3866726e-12
-5.8761089e-17
1.3867332e-12
-5.0339405e-16
1.3869647e-12
-8.9421447e-16
1.3873459e-12
-1.2348911e-15
1.3878574e-12
-1.5289942e-15
1.388481e-12
-1.7799834e-15
1.3892001e-12
-1.9911985e-15
1.3899991e-12
-2.1658514e-15
1.3908638e-12
-2.3070201e-15
1.3917814e-12
-2.4176443e-15
1.39274e-12
-2.5005231e-15
1.3937289e-12
-2.5583125e-15
1.3947385e-12
-2.5935251e-15
1.39576e-12
-2.6085307e-15
1.3967857e-12
-2.6055569e-15
1.3978087e-12
-2.5866916e-15
1.398823e-12
-2.5538852e-15
1.3998231e-12
-2.5089536e-15
1.4008046e-12
-2.4535823e-15
1.4017634e-12
-2.3893302e-15
1.4026962e-12
-2.3176336e-15
1.4036002e-12
-2.2398115e-15
1.4044731e-12
-2.1570701e-15
1.405313e-12
-2.0705079e-15
1.4061187e-12
-1.9811209e-15
1.4068889e-12
-1.8898079e-15
1.4076232e-12
-1.7973757e-15
1.408321e-12
-1.7045445e-15
1.4089824e-12
-1.6119531e-15
1.4096074e-12
-1.5201641e-15
1.4101965e-12
-1.4296691e-15
1.4107501e-12
-1.3408932e-15
1.4112691e-12
-1.2542008e-15
1.4117542e-12
-1.1698994e-15
1.4122064e-12
-1.0882447e-15
1.4126268e-12
-1.0094445e-15
1.4130165e-12
-9.336634e-16
1.4133768e-12
-8.610266e-16
1.4137088e-12
-7.9162353e-16
1.4140138e-12
-7.2551165e-16
1.4142932e-12
-6.6271977e-16
1.4145482e-12
-6.0325131e-16
1.4147801e-12
-5.4708722e-16
1.4149903e-12
-4.9418889e-16
1.41518e-12
-4.4450066e-16
1.4153505e-12
-3.9795234e-16
1.415503e-12
-3.5446137e-16
1.4156386e-12
-3.1393498e-16
1.4157586e-12
-2.7627196e-16
1.415864e-12
-2.4136452e-16
1.415956e-12
-2.0909974e-16
1.4160354e-12
-1.7936109e-16
1.4161035e-12
-1.5202962e-16
1.4161609e-12
-1.2698516e-16
1.4162087e-12
-1.0410729e-16
1.4162477e-12
-8.3276264e-17
1.4162787e-12
-6.4373744e-17
1.4163024e-12
-4.7283498e-17
1.4163195e-12
-3.1891961e-17
1.4163307e-12
-1.8088706e-17
1.4163366e-12
-5.7668555e-18
1.4163378e-12
5.1766316e-18
1.4163348e-12
1.4840684e-17
1.416328e-12
2.3319977e-17
1.416318e-12
3.0704769e-17
1.4163052e-12
3.7080864e-17
1.4162899e-12
4.2529545e-17
1.4162726e-12
4.7127643e-17
1.4162535e-12
5.0947537e-17
1.416233e-12
5.4057291e-17
1.4162113e-12
5.6520712e-17
1.4161887e-12
5.8397528e-17
1.4161654e-12
5.9743484e-17
1.4161416e-12
6.0610556e-17
1.4161175e-12
6.1047066e-17
1.4160932e-12
6.1097916e-17
1.416069e-12
6.0804714e-17
1.4160449e-12
6.0206009e-17
1.4160211e-12
5.9337425e-17
1.4159976e-12
5.8231889e-17
1.4159747e-12
5.6919757e-17
1.4159522e-12
5.5429034e-17
1.4159304e-12
5.3785488e-17
1.4159092e-12
5.2012848e-17
1.4158888e-12
5.0132916e-17
1.4158691e-12
4.8165733e-17
1.4158502e-12
4.612968e-17
1.4158321e-12
4.4041624e-17
1.4158149e-12
4.1917003e-17
1.4157985e-12
3.9769946e-17
1.4157829e-12
3.7613354e-17
1.4157683e-12
3.5458985e-17
1.4157545e-12
3.3317533e-17
1.4157415e-12
3.1198691e-17
1.4157294e-12
2.9111222e-17
1.4157181e-12
2.7062998e-17
1.4157077e-12
2.5061072e-17
1.415698e-12
2.31117e-17
1.4156891e-12
2.1220406e-17
1.415681e-12
1.9391995e-17
1.4156735e-12
1.7630615e-17
1.4156668e-12
1.5939763e-17
1.4156607e-12
1.4322338e-17
1.4156553e-12
1.2780653e-17
1.4156505e-12
1.131648e-17
1.4156462e-12
9.9310617e-18
1.4156425e-12
8.6251563e-18
1.4156393e-12
7.3990446e-18
1.4156366e-12
6.2525822e-18
1.4156343e-12
5.1852012e-18
1.4156324e-12
4.1959637e-18
1.4156309e-12
3.2835652e-18
1.4156298e-12
2.4463866e-18
1.4156289e-12
1.6824995e-18
1.4156284e-12
9.8971436e-19
1.4156281e-12
3.6558783e-19
1.4156281e-12
-1.9253464e-19
1.4156283e-12
-6.875121e-19
1.4156286e-12
-1.1223746e-18
1.4156292e-12
-1.5003219e-18
1.4156298e-12
-1.8247055e-18
1.4156306e-12
-2.0990391e-18
1.4156315e-12
-2.327007e-18
1.4156325e-12
-2.5125011e-18
1.4156335e-12
-2.6596734e-18
1.4156346e-12
-2.7730221e-18
1.4156357e-12
-2.8575119e-18
1.4156369e-12
-2.9187333e-18
1.4156381e-12
-2.9631e-18
1.4156392e-12
-2.9980506e-18
1.4156404e-12
-3.0322038e-18
1.4156416e-12
-3.0752867e-18
1.4156428e-12
-3.137517e-18
1.415644e-12
-3.2277637e-18
1.4156452e-12
-3.3497026e-18
1.4156464e-12
-3.494188e-18
-3.6182024e-18
-3.7312331e-14
2.2897977e-13
3.183589e-14
1.2833169e-13
2.127964e-13
-1.4549195e-13
4.5028304e-13
-3.9088946e-13
7.0216236e-13
-5.6020767e-13
9.4528816e-13
-6.5487115e-13
1.1689665e-12
-6.8969099e-13
1.3693526e-12
-6.813205e-13
1.5458787e-12
-6.4406107e-13
1.6993567e-12
-5.889932e-13
1.8311167e-12
-5.2429206e-13
1.9426628e-12
-4.5579075e-13
2.0355526e-12
-3.8751778e-13
2.1113594e-12
-3.2214523e-13
2.1716569e-12
-2.6134333e-13
2.2180049e-12
-2.0605413e-13
2.2519324e-12
-1.5670045e-13
2.2749185e-12
-1.1334374e-13
2.288375e-12
-7.5802325e-14
2.293631e-12
-4.3739042e-14
2.2919212e-12
-1.672519e-14
2.2843786e-12
5.7135479e-15
2.272031e-12
2.4065232e-14
2.2558008e-12
3.8809034e-14
2.2365076e-12
5.0401086e-14
2.2148729e-12
5.9265945e-14
2.1915254e-12
6.579199e-14
2.1670084e-12
7.0329653e-14
2.1417866e-12
7.3191586e-14
2.1162539e-12
7.4654121e-14
2.0907406e-12
7.4959517e-14
2.0655202e-12
7.431866e-14
2.0408165e-12
7.2913952e-14
2.0168095e-12
7.0902238e-14
1.9936411e-12
6.8417632e-14
1.9714204e-12
6.5574196e-14
1.9502281e-12
6.2468417e-14
1.9301208e-12
5.9181459e-14
1.9111345e-12
5.5781198e-14
1.893288e-12
5.232403e-14
1.8765857e-12
4.8856476e-14
1.8610199e-12
4.5416585e-14
1.8465731e-12
4.2035173e-14
1.8332199e-12
3.8736885e-14
1.8209284e-12
3.5541126e-14
1.8096617e-12
3.2462861e-14
1.7993792e-12
2.9513304e-14
1.7900374e-12
2.670051e-14
1.7815908e-12
2.4029883e-14
1.7739926e-12
2.1504605e-14
1.7671954e-12
1.9126015e-14
1.7611519e-12
1.6893915e-14
1.7558148e-12
1.4806849e-14
1.7511375e-12
1.2862325e-14
1.7470745e-12
1.1057015e-14
1.7435813e-12
9.3869181e-15
1.7406148e-12
7.8475062e-15
1.7381336e-12
6.4338407e-15
1.7360978e-12
5.1406769e-15
1.7344691e-12
3.962551e-15
1.7332111e-12
2.8938547e-15
1.7322892e-12
1.9288977e-15
1.7316707e-12
1.0619621e-15
1.7313245e-12
2.8734775e-16
1.7312217e-12
-4.0058937e-16
1.7313349e-12
-1.0074047e-15
1.7316386e-12
-1.5385371e-15
1.7321089e-12
-1.9992874e-15
1.7327237e-12
-2.394799e-15
1.7334625e-12
-2.7300435e-15
1.7343065e-12
-3.0098072e-15
1.7352381e-12
-3.2386822e-15
1.7362416e-12
-3.4210596e-15
1.7373022e-12
-3.561124e-15
1.7384067e-12
-3.6628506e-15
1.7395432e-12
-3.7300044e-15
1.7407008e-12
-3.7661393e-15
1.7418698e-12
-3.7746003e-15
1.7430417e-12
-3.7585254e-15
1.7442086e-12
-3.7208495e-15
1.745364e-12
-3.6643087e-15
1.7465018e-12
-3.5914451e-15
1.7476171e-12
-3.5046132e-15
1.7487055e-12
-3.4059854e-15
1.7497632e-12
-3.2975594e-15
1.7507873e-12
-3.1811651e-15
1.7517753e-12
-3.0584717e-15
1.7527252e-12
-2.9309956e-15
1.7536355e-12
-2.800108e-15
1.7545051e-12
-2.6670424e-15
1.7553335e-12
-2.5329029e-15
1.7561202e-12
-2.3986714e-15
1.7568652e-12
-2.2652156e-15
1.7575689e-12
-2.1332962e-15
1.7582316e-12
-2.0035748e-15
1.758854e-12
-1.8766205e-15
1.759437e-12
-1.7529174e-15
1.7599816e-12
-1.6328706e-15
1.760489e-12
-1.5168139e-15
1.7609603e-12
-1.4050145e-15
1.761397e-12
-1.2976803e-15
1.7618003e-12
-1.1949647e-15
1.7621718e-12
-1.0969726e-15
1.7625128e-12
-1.0037647e-15
1.762825e-12
-9.1536317e-16
1.7631096e-12
-8.3175532e-16
1.7633683e-12
-7.5289857e-16
1.7636026e-12
-6.787237e-16
1.7638138e-12
-6.0913905e-16
1.7640033e-12
-5.4403342e-16
1.7641727e-12
-4.8327961e-16
1.7643231e-12
-4.2673687e-16
1.764456e-12
-3.7425392e-16
1.7645726e-12
-3.2567091e-16
1.7646741e-12
-2.8082198e-16
1.7647616e-12
-2.3953683e-16
1.7648362e-12
-2.0164277e-16
1.7648991e-12
-1.6696601e-16
1.7649511e-12
-1.3533321e-16
1.7649933e-12
-1.0657253e-16
1.7650266e-12
-8.0514785e-17
1.7650517e-12
-5.6994246e-17
1.7650694e-12
-3.5849393e-17
1.7650806e-12
-1.6923617e-17
1.7650858e-12
-6.5574365e-20
1.7650858e-12
1.4870221e-17
1.7650811e-12
2.8023348e-17
1.7650723e-12
3.9526983e-17
1.7650599e-12
4.9508072e-17
1.7650443e-12
5.8086914e-17
1.7650261e-12
6.5377561e-17
1.7650055e-12
7.1487456e-17
1.7649831e-12
7.6517976e-17
1.764959e-12
8.0564108e-17
1.7649337e-12
8.3715104e-17
1.7649074e-12
8.6054191e-17
1.7648803e-12
8.7659293e-17
1.7648528e-12
8.8602763e-17
1.7648249e-12
8.8952145e-17
1.764797e-12
8.8769926e-17
1.764769e-12
8.8114288e-17
1.7647413e-12
8.7038899e-17
1.764714e-12
8.5593624e-17
1.7646871e-12
8.3824341e-17
1.7646607e-12
8.1773605e-17
1.764635e-12
7.948049e-17
1.7646101e-12
7.6981178e-17
1.7645859e-12
7.430884e-17
1.7645626e-12
7.1494135e-17
1.7645401e-12
6.8565135e-17
1.7645186e-12
6.5547722e-17
1.7644981e-12
6.2465567e-17
1.7644785e-12
5.9340419e-17
1.7644599e-12
5.6192136e-17
1.7644423e-12
5.3038876e-17
1.7644258e-12
4.9897176e-17
1.7644102e-12
4.6782052e-17
1.7643956e-12
4.3707122e-17
1.764382e-12
4.0684629e-17
1.7643693e-12
3.7725602e-17
1.7643576e-12
3.4839813e-17
1.7643467e-12
3.203597e-17
1.7643368e-12
2.9321626e-17
1.7643277e-12
2.6703398e-17
1.7643195e-12
2.4186831e-17
1.764312e-12
2.1776644e-17
1.7643053e-12
1.9476567e-17
1.7642994e-12
1.7289602e-17
1.7642941e-12
1.5217837e-17
1.7642894e-12
1.3262723e-17
1.7642854e-12
1.1424882e-17
1.764282e-12
9.7043776e-18
1.7642791e-12
8.100535e-18
1.7642766e-12
6.6121989e-18
1.7642747e-12
5.2375687e-18
1.7642732e-12
3.9744394e-18
1.764272e-12
2.8200559e-18
1.7642712e-12
1.7713311e-18
1.7642708e-12
8.2472309e-19
1.7642706e-12
-2.357721e-20
1.7642707e-12
-7.777452e-19
1.764271e-12
-1.442171e-18
1.7642715e-12
-2.0215409e-18
1.7642722e-12
-2.5207302e-18
1.7642731e-12
-2.9448735e-18
1.7642741e-12
-3.2993122e-18
1.7642751e-12
-3.5896696e-18
1.7642763e-12
-3.82187e-18
1.7642775e-12
-4.0022377e-18
1.7642788e-12
-4.1375994e-18
1.7642801e-12
-4.2354166e-18
1.7642815e-12
-4.3039489e-18
1.7642828e-12
-4.3523472e-18
1.7642842e-12
-4.3906909e-18
1.7642855e-12
-4.4296693e-18
1.7642869e-12
-4.4797781e-18
1.7642882e-12
-4.5493246e-18
1.7642895e-12
-4.6409245e-18
1.7642907e-12
-4.7460831e-18
-4.8345018e-18
2.9142999e-14
1.9983677e-13
2.9670361e-13
-1.3922892e-13
6.750364e-13
-5.2382474e-13
1.0489411e-12
-7.647942e-13
1.3769317e-12
-8.8819824e-13
1.6516713e-12
-9.2961074e-13
1.8781645e-12
-9.1618417e-13
2.0644541e-12
-8.6761009e-13
2.2179867e-12
-7.9759369e-13
2.3446473e-12
-7.1565382e-13
2.4488319e-12
-6.2847668e-13
2.5338022e-12
-5.4076102e-13
2.6020406e-12
-4.5575615e-13
2.6555249e-12
-3.7562955e-13
2.695916e-12
-3.0173442e-13
2.7246754e-12
-2.3481359e-13
2.7431339e-12
-1.7515893e-13
2.7525273e-12
-1.2273708e-13
2.754013e-12
-7.7288068e-14
2.7486759e-12
-3.8401962e-14
2.7375282e-12
-5.5774741e-15
2.7215072e-12
2.1734535e-14
2.701474e-12
4.4098502e-14
2.6782122e-12
6.2070794e-14
2.6524286e-12
7.6184702e-14
2.624754e-12
8.6940512e-14
2.5957463e-12
9.4799694e-14
2.5658938e-12
1.0018216e-13
2.5356197e-12
1.0346574e-13
2.5052866e-12
1.0498714e-13