/*--------------------------------*- C++ -*----------------------------------*\
| =========                 |                                                 |
| \\      /  F ield         | OpenFOAM: The Open Source CFD Toolbox           |
|  \\    /   O peration     | Version:  2406                                  |
|   \\  /    A nd           | Website:  www.openfoam.com                      |
|    \\/     M anipulation  |                                                 |
\*---------------------------------------------------------------------------*/
FoamFile
{
    version     2.0;
    format      ascii;
    arch        "LSB;label=32;scalar=64";
    class       volScalarField;
    location    "1104";
    object      T;
}
// * * * * * * * * * * * * * * * * * * * * * * * * * * * * * * * * * * * * * //

dimensions      [0 0 0 0 0 0 0];

internalField   nonuniform List<scalar> 
7600
(
1
1
1
1
1
1
1
1
1
1
1
1
1
1
1
1
1
1
1
1
1
1
1
1
1
1
1
1
1
1
1
1
1
1
1
1
1
1
1
1
1
1
1
1
1
1
1
1
1
1
1
1
1
1
1
1
1
1
1
1
1
1
1
1
1
1
1
1
1
1
1
1
1
1
1
1
1
1
1
1
1
1
1
1
1
1
1
1
1
1
1
1
1
1
1
1
1
1
1
1
1
1
1
1
1
1
1
1
1
1
1
1
1
1
1
1
1
1
1
1
1
1
1
1
1
1
1
1
1
1
1
1
1
1
1
1
1
1
1
1
1
1
1
1
1
1
1
1
1
1
1
1
1
1
1
1
1
1
1
1
1
1
1
1
1
1
1
1
1
1
1
1
1
1
1
1
1
1
1
1
1
1
1
1
1
1
1
1
1
1
1
1
1
1
1
1
1
1
1
1
1
1
1
1
1
1
1
1
1
1
1
1
1
1
1
1
1
1
1
1
1
1
1
1
1
1
1
1
1
1
1
1
1
1
1
1
1
1
1
1
1
1
1
1
1
1
1
1
1
1
1
1
1
1
1
1
1
1
1
1
1
1
1
1
1
1
1
1
1
1
1
1
1
1
1
1
1
1
1
1
1
1
1
1
1
1
1
1
1
1
1
1
1
1
1
1
1
1
1
1
1
1
1
1
1
1
1
1
1
1
1
1
1
1
1
1
1
1
1
1
1
1
1
1
1
1
1
1
1
1
1
1
1
1
1
1
1
1
1
1
1
1
1
1
1
1
1
1
1
1
1
1
1
1
1
1
1
1
1
1
1
1
1
1
1
1
1
1
1
1
1
1
1
1
1
1
1
1
1
1
1
1
1
1
1
1
1
1
1
1
1
1
1
1
1
1
1
1
1
1
1
1
1
1
1
1
1
1
1
1
1
1
1
1
1
1
1
1
1
1
1
1
1
1
1
1
1
1
1
1
1
1
1
1
1
1
1
1
1
1
1
1
1
1
1
1
1
1
1
1
1
1
1
1
1
1
1
1
1
1
1
1
1
1
1
1
1
1
1
1
1
1
1
1
1
1
1
1
1
1
1
1
1
1
1
1
1
1
1
1
1
1
1
1
1
1
1
1
1
1
1
1
1
1
1
1
1
1
1
1
1
1
1
1
1
1
1
1
1
1
1
1
1
1
1
1
1
1
1
1
1
1
1
1
1
1
1
1
1
1
1
1
1
1
1
1
1
1
1
1
1
1
1
1
1
1
1
1
1
1
1
1
1
1
1
1
1
1
1
1
1
1
1
1
1
1
1
1
1
1
1
1
1
1
1
1
1
1
1
1
1
1
1
1
1
1
1
1
1
1
1
1
1
1
1
1
1
1
1
1
1
1
1
1
1
1
1
1
1
1
1
1
1
1
1
1
1
1
1
1
1
1
1
1
1
1
1
1
1
1
1
1
1
1
1
1
1
1
1
1
1
1
1
1
1
1
1
1
1
1
1
1
1
1
1
1
1
1
1
1
1
1
1
1
1
1
1
1
1
1
1
1
1
1
1
1
1
1
1
1
1
1
1
1
1
1
1
1
1
1
1
1
1
1
1
1
1
1
1
1
1
1
1
1
1
1
1
1
1
1
1
1
1
1
1
1
1
1
1
1
1
1
1
1
1
1
1
1
1
1
1
1
1
1
1
1
1
1
1
1
1
1
1
1
1
1
1
1
1
1
1
1
1
1
1
1
1
1
1
1
1
1
1
1
1
1
1
1
1
1
1
1
1
1
1
1
1
1
1
1
1
1
1
1
1
1
1
1
1
1
1
1
1
1
1
1
1
1
1
1
1
1
1
1
1
1
1
1
1
1
1
1
1
1
1
1
1
1
1
1
1
1
1
1
1
1
1
1
1
1
1
1
1
1
1
1
1
1
1
1
1
1
1
1
1
1
1
1
1
1
1
1
1
1
1
1
1
1
1
1
1
1
1
1
1
1
1
1
1
1
1
1
1
1
1
1
1
1
1
1
1
1
1
1
1
1
1
1
1
1
1
1
1
1
1
1
1
1
1
1
1
1
1
1
1
1
1
1
1
1
1
1
1
1
1
1
1
1
1
1
1
1
1
1
1
1
1
1
1
1
1
1
1
1
1
1
1
1
1
1
1
1
1
1
1
1
1
1
1
1
1
1
1
1
1
1
1
1
1
1
1
1
1
1
1
1
1
1
1
1
1
1
1
1
1
1
1
1
1
1
1
1
1
1
1
1
1
1
1
1
1
1
1
1
1
1
1
1
1
1
1
1
1
1
1
1
1
1
1
1
1
1
1
1
1
1
1
1
1
1
1
1
1
1
1
1
1
1
1
1
1
1
1
1
1
1
1
1
1
1
1
1
1
1
1
1
1
1
1
1
1
1
1
1
1
1
1
1
1
1
1
1
1
1
1
1
1
1
1
1
1
1
1
1
1
1
1
1
1
1
1
1
1
1
1
1
1
1
1
1
1
1
1
1
1
1
1
1
1
1
1
1
1
1
1
1
1
1
1
1
1
1
1
1
1
1
1
1
1
1
1
1
1
1
1
1
1
1
1
1
1
1
1
1
1
1
1
1
1
1
1
1
1
1
1
1
1
1
1
1
1
1
1
1
1
1
1
1
1
1
1
1
1
1
1
1
1
1
1
1
1
1
1
1
1
1
1
1
1
1
1
1
1
1
1
1
1
1
1
1
1
1
1
1
1
1
1
1
1
1
1
1
1
1
1
1
1
1
1
1
1
1
1
1
1
1
1
1
1
1
1
1
1
1
1
1
1
1
1
1
1
1
1
1
1
1
1
1
1
1
1
1
1
1
1
1
1
1
1
1
1
1
1
1
1
1
1
1
1
1
1
1
1
1
1
1
1
1
1
1
1
1
1
1
1
1
1
1
1
1
1
1
1
1
1
1
1
1
1
1
1
1
1
1
1
1
1
1
1
1
1
1
1
1
1
1
1
1
1
1
1
1
1
1
1
1
1
1
1
1
1
1
1
1
1
1
1
1
1
1
1
1
1
1
1
1
1
1
1
1
1
1
1
1
1
1
1
1
1
1
1
1
1
1
1
1
1
1
1
1
1
1
1
1
1
1
1
1
1
1
1
1
1
1
1
1
1
1
1
1
1
1
1
1
1
1
1
1
1
1
1
1
1
1
1
1
1
1
1
1
1
1
1
1
1
1
1
1
1
1
1
1
1
1
1
1
1
1
1
1
1
1
1
1
1
1
1
1
1
1
1
1
1
1
1
1
1
1
1
1
1
1
1
1
1
1
1
1
1
1
1
1
1
1
1
1
1
1
1
1
1
1
1
1
1
1
1
1
1
1
1
1
1
1
1
1
1
1
1
1
1
1
1
1
1
1
1
1
1
1
1
1
1
1
1
1
1
1
1
1
1
1
1
1
1
1
1
1
1
1
1
1
1
1
1
1
1
1
1
1
1
1
1
1
1
1
1
1
1
1
1
1
1
1
1
1
1
1
1
1
1
1
1
1
1
1
1
1
1
1
1
1
1
1
1
1
1
1
1
1
1
1
1
1
1
1
1
1
1
1
1
1
1
1
1
1
1
1
1
1
1
1
1
1
1
1
1
1
1
1
1
1
1
1
1
1
1
1
1
1
1
1
1
1
1
1
1
1
1
1
1
1
1
1
1
1
1
1
1
1
1
1
1
1
1
1
1
1
1
1
1
1
1
1
1
1
1
1
1
1
1
1
1
1
1
1
1
1
1
1
1
1
1
1
1
1
1
1
1
1
1
1
1
1
1
1
1
1
1
1
1
1
1
1
1
1
1
1
1
1
1
1
1
1
1
1
1
1
1
1
1
1
1
1
1
1
1
1
1
1
1
1
1
1
1
1
1
1
1
1
1
1
1
1
1
1
1
1
1
1
1
1
1
1
1
1
1
1
1
1
1
1
1
1
1
1
1
1
1
1
1
1
1
1
1
1
1
1
1
1
1
1
1
1
1
1
1
1
1
1
1
1
1
1
1
1
1
1
1
1
1
1
1
1
1
1
1
1
1
1
1
1
1
1
1
1
1
1
1
1
1
1
1
1
1
1
1
1
1
1
1
1
1
1
1
1
1
1
1
1
1
1
1
1
1
1
1
1
1
1
1
1
1
1
1
1
1
1
1
1
1
1
1
1
1
1
1
1
1
1
1
1
1
1
1
1
1
1
1
1
1
1
1
1
1
1
1
1
1
1
1
1
1
1
1
1
1
1
1
1
1
1
1
1
1
1
1
1
1
1
1
1
1
1
1
1
1
1
1
1
1
1
1
1
1
1
1
1
1
1
1
1
1
1
1
1
1
1
1
1
1
1
1
1
1
1
1
1
1
1
1
1
1
1
1
1
1
1
1
1
1
1
1
1
1
1
1
1
1
1
1
1
1
1
1
1
1
1
1
1
1
1
1
1
1
1
1
1
1
1
1
1
1
1
1
1
1
1
1
1
1
1
1
1
1
1
1
1
1
1
1
1
1
1
1
1
1
1
1
1
1
1
1
1
1
1
1
1
1
1
1
1
1
1
1
1
1
1
1
1
1
1
1
1
1
1
1
1
1
1
1
1
1
1
1
1
1
1
1
1
1
1
1
1
1
1
1
1
1
1
1
1
1
1
1
1
1
1
1
1
1
1
1
1
1
1
1
1
1
1
1
1
1
1
1
1
1
1
1
1
1
1
1
1
1
1
1
1
1
1
1
1
1
1
1
1
1
1
1
1
1
1
1
1
1
1
1
1
1
1
1
1
1
1
1
1
1
1
1
1
1
1
1
1
1
1
1
1
1
1
1
1
1
1
1
1
1
1
1
1
1
1
1
1
1
1
1
1
1
1
1
1
1
1
1
1
1
1
1
1
1
1
1
1
1
1
1
1
1
1
1
1
1
1
1
1
1
1
1
1
1
1
1
1
1
1
1
1
1
1
1
1
1
1
1
1
1
1
1
1
1
1
1
1
1
1
1
1
1
1
1
1
1
1
1
1
1
1
1
1
1
1
1
1
1
1
1
1
1
1
1
1
1
1
1
1
1
1
1
1
1
1
1
1
1
1
1
1
1
1
1
1
1
1
1
1
1
1
1
1
1
1
1
1
1
1
1
1
1
1
1
1
1
1
1
1
1
1
1
1
1
1
1
1
1
1
1
1
1
1
1
1
1
1
1
1
1
1
1
1
1
1
1
1
1
1
1
1
1
1
1
1
1
1
1
1
1
1
1
1
1
1
1
1
1
1
1
1
1
1
1
1
1
1
1
1
1
1
1
1
1
1
1
1
1
1
1
1
1
1
1
1
1
1
1
1
1
1
1
1
1
1
1
1
1
1
1
1
1
1
1
1
1
1
1
1
1
1
1
1
1
1
1
1
1
1
1
1
1
1
1
1
1
1
1
1
1
1
1
1
1
1
1
1
1
1
1
1
1
1
1
1
1
1
1
1
1
1
1
1
1
1
1
1
1
1
1
1
1
1
1
1
1
1
1
1
1
1
1
1
1
1
1
1
1
1
1
1
1
1
1
1
1
1
1
1
1
1
1
1
1
1
1
1
1
1
1
1
1
1
1
1
1
1
1
1
1
1
1
1
1
1
1
1
1
1
1
1
1
1
1
1
1
1
1
1
1
1
1
1
1
1
1
1
1
1
1
1
1
1
1
1
1
1
1
1
1
1
1
1
1
1
1
1
1
1
1
1
1
1
1
1
1
1
1
1
1
1
1
1
1
1
1
1
1
1
1
1
1
1
1
1
1
1
1
1
1
1
1
1
1
1
1
1
1
1
1
1
1
1
1
1
1
1
1
1
1
1
1
1
1
1
1
1
1
1
1
1
1
1
1
1
1
1
1
1
1
1
1
1
1
1
1
1
1
1
1
1
1
1
1
1
1
1
1
1
1
1
1
1
1
1
1
1
1
1
1
1
1
1
1
1
1
1
1
1
1
1
1
1
1
1
1
1
1
1
1
1
1
1
1
1
1
1
1
1
1
1
1
1
1
1
1
1
1
1
1
1
1
1
1
1
1
1
1
1
1
1
1
1
1
1
1
1
1
1
1
1
1
1
1
1
1
1
1
1
1
1
1
1
1
1
1
1
1
1
1
1
1
1
1
1
1
1
1
1
1
1
1
1
1
1
1
1
1
1
1
1
1
1
1
1
1
1
1
1
1
1
1
1
1
1
1
1
1
1
1
1
1
1
1
1
1
1
1
1
1
1
1
1
1
1
1
1
1
1
1
1
1
1
1
1
1
1
1
1
1
1
1
1
1
1
1
1
1
1
1
1
1
1
1
1
1
1
1
1
1
1
1
1
1
1
1
1
1
1
1
1
1
1
1
1
1
1
1
1
1
1
1
1
1
1
1
1
1
1
1
1
1
1
1
1
1
1
1
1
1
1
1
1
1
1
1
1
1
1
1
1
1
1
1
1
1
1
1
1
1
1
1
1
1
1
1
1
1
1
1
1
1
1
1
1
1
1
1
1
1
1
1
1
1
1
1
1
1
1
1
1
1
1
1
1
1
1
1
1
1
1
1
1
1
1
1
1
1
1
1
1
1
1
1
1
1
1
1
1
1
1
1
1
1
1
1
1
1
1
1
1
1
1
1
1
1
1
1
1
1
1
1
1
1
1
1
1
1
1
1
1
1
1
1
1
1
1
1
1
1
1
1
1
1
1
1
1
1
1
1
1
1
1
1
1
1
1
1
1
1
1
1
1
1
1
1
1
1
1
1
1
1
1
1
1
1
1
1
1
1
1
1
1
1
1
1
1
1
1
1
1
1
1
1
1
1
1
1
1
1
1
1
1
1
1
1
1
1
1
1
1
1
1
1
1
1
1
1
1
1
1
1
1
1
1
1
1
1
1
1
1
1
1
1
1
1
1
1
1
1
1
1
1
1
1
1
1
1
1
1
1
1
1
1
1
1
1
1
1
1
1
1
1
1
1
1
1
1
1
1
1
1
1
1
1
1
1
1
1
1
1
1
1
1
1
1
1
1
1
1
1
1
1
1
1
1
1
1
1
1
1
1
1
1
1
1
1
1
1
1
1
1
1
1
1
1
1
1
1
1
1
1
1
1
1
1
1
1
1
1
1
1
1
1
1
1
1
1
1
1
1
1
1
1
1
1
1
1
1
1
1
1
1
1
1
1
1
1
1
1
1
1
1
1
1
1
1
1
1
1
1
1
1
1
1
1
1
1
1
1
1
1
1
1
1
1
1
1
1
1
1
1
1
1
1
1
1
1
1
1
1
1
1
1
1
1
1
1
1
1
1
1
1
1
1
1
1
1
1
1
1
1
1
1
1
1
1
1
1
1
1
1
1
1
1
1
1
1
1
1
1
1
1
1
1
1
1
1
1
1
1
1
1
1
1
1
1
1
1
1
1
1
1
1
1
1
1
0.99999999
0.99999999
0.99999999
0.99999999
0.99999999
0.99999999
0.99999999
0.99999999
0.99999998
0.99999998
0.99999998
0.99999998
0.99999998
0.99999998
0.99999997
0.99999997
0.99999997
0.99999997
0.99999997
0.99999997
0.99999997
0.99999996
0.99999996
0.99999996
0.99999996
0.99999996
0.99999996
0.99999996
0.99999996
0.99999996
0.99999996
0.99999995
0.99999995
0.99999995
0.99999995
0.99999995
0.99999995
0.99999995
0.99999995
0.99999995
0.99999995
0.99999995
0.99999995
0.99999995
0.99999995
0.99999995
0.99999995
0.99999995
0.99999995
0.99999995
0.99999995
0.99999995
0.99999995
0.99999995
0.99999995
0.99999995
0.99999995
0.99999994
0.99999994
0.99999994
0.99999994
0.99999994
0.99999994
0.99999994
0.99999994
0.99999994
0.99999994
0.99999994
0.99999994
0.99999994
0.99999994
0.99999994
0.99999994
0.99999994
0.99999994
0.99999994
0.99999994
0.99999994
0.99999994
0.99999994
0.99999994
0.99999994
0.99999994
0.99999994
0.99999994
0.99999994
0.99999993
0.99999993
0.99999993
0.99999993
0.99999993
0.99999993
0.99999993
0.99999993
0.99999993
0.99999993
0.99999993
0.99999993
0.99999993
0.99999993
0.99999993
0.99999993
0.99999993
0.99999993
0.99999993
0.99999993
0.99999993
0.99999993
0.99999993
0.99999993
0.99999993
0.99999992
0.99999992
0.99999992
0.99999992
0.99999992
0.99999993
0.99999987
0.99999984
0.99999982
0.99999981
0.9999998
0.9999998
0.9999998
0.99999981
0.99999982
0.99999983
0.99999984
0.99999985
0.99999986
0.99999987
0.99999988
0.99999989
0.9999999
0.99999991
0.99999992
0.99999993
0.99999993
0.99999994
0.99999995
0.99999995
0.99999996
0.99999996
0.99999996
0.99999997
0.99999997
0.99999997
0.99999998
0.99999998
0.99999998
0.99999998
0.99999998
0.99999998
0.99999998
0.99999998
0.99999999
0.99999999
0.99999999
0.99999999
0.99999999
0.99999999
0.99999999
0.99999999
0.99999999
0.99999999
0.99999999
0.99999999
0.99999999
0.99999999
0.99999999
0.99999999
0.99999999
0.99999999
0.99999999
0.99999999
0.99999999
0.99999999
0.99999999
0.99999999
0.99999999
0.99999999
0.99999999
0.99999999
0.99999999
0.99999999
0.99999999
0.99999998
0.99999998
0.99999998
0.99999997
0.99999996
0.99999995
0.99999994
0.99999993
0.99999991
0.9999999
0.99999988
0.99999986
0.99999983
0.99999981
0.99999978
0.99999975
0.99999972
0.99999968
0.99999965
0.99999961
0.99999958
0.99999954
0.9999995
0.99999946
0.99999942
0.99999939
0.99999935
0.99999931
0.99999928
0.99999924
0.99999921
0.99999918
0.99999915
0.99999912
0.99999909
0.99999906
0.99999903
0.99999901
0.99999899
0.99999896
0.99999894
0.99999892
0.99999891
0.99999889
0.99999887
0.99999886
0.99999885
0.99999883
0.99999882
0.99999881
0.9999988
0.99999879
0.99999878
0.99999877
0.99999877
0.99999876
0.99999875
0.99999874
0.99999874
0.99999873
0.99999873
0.99999872
0.99999871
0.99999871
0.9999987
0.99999869
0.99999869
0.99999868
0.99999868
0.99999867
0.99999866
0.99999866
0.99999865
0.99999864
0.99999864
0.99999863
0.99999862
0.99999862
0.99999861
0.9999986
0.9999986
0.99999859
0.99999858
0.99999858
0.99999857
0.99999856
0.99999856
0.99999855
0.99999854
0.99999854
0.99999853
0.99999852
0.99999852
0.99999851
0.9999985
0.99999849
0.99999849
0.99999848
0.99999847
0.99999847
0.99999846
0.99999845
0.99999844
0.99999844
0.99999843
0.99999842
0.99999842
0.99999841
0.9999984
0.99999839
0.99999839
0.99999838
0.99999837
0.99999836
0.99999836
0.99999835
0.99999834
0.99999833
0.99999832
0.99999832
0.99999831
0.9999983
0.99999829
0.99999829
0.99999828
0.99999827
0.99999826
0.99999825
0.99999825
0.99999824
0.99944211
0.99958262
0.99965919
0.99971429
0.99975778
0.99979378
0.9998243
0.99985043
0.99987287
0.99989213
0.99990865
0.99992277
0.99993482
0.99994508
0.99995377
0.99996113
0.99996733
0.99997255
0.99997693
0.9999806
0.99998366
0.99998622
0.99998835
0.99999012
0.9999916
0.99999283
0.99999385
0.9999947
0.99999542
0.99999601
0.99999651
0.99999693
0.99999729
0.99999758
0.99999783
0.99999805
0.99999823
0.99999838
0.99999851
0.99999862
0.99999872
0.9999988
0.99999887
0.99999893
0.99999898
0.99999903
0.99999906
0.99999909
0.99999912
0.99999914
0.99999916
0.99999917
0.99999918
0.99999919
0.99999919
0.99999919
0.99999919
0.99999919
0.99999919
0.99999918
0.99999917
0.99999916
0.99999915
0.99999914
0.99999913
0.99999911
0.99999909
0.99999908
0.99999903
0.99999895
0.99999883
0.99999867
0.99999846
0.99999822
0.99999793
0.9999976
0.99999723
0.99999682
0.99999637
0.99999588
0.99999535
0.99999479
0.99999421
0.9999936
0.99999296
0.99999232
0.99999165
0.99999098
0.99999031
0.99998963
0.99998896
0.99998829
0.99998763
0.99998698
0.99998635
0.99998574
0.99998514
0.99998456
0.999984
0.99998347
0.99998295
0.99998246
0.999982
0.99998156
0.99998114
0.99998074
0.99998037
0.99998001
0.99997968
0.99997937
0.99997908
0.99997881
0.99997856
0.99997833
0.99997811
0.9999779
0.99997771
0.99997753
0.99997737
0.99997722
0.99997707
0.99997694
0.99997682
0.9999767
0.99997659
0.99997649
0.99997639
0.9999763
0.99997622
0.99997613
0.99997604
0.99997595
0.99997586
0.99997578
0.99997569
0.9999756
0.99997552
0.99997543
0.99997534
0.99997525
0.99997517
0.99997508
0.99997499
0.9999749
0.99997482
0.99997473
0.99997464
0.99997455
0.99997447
0.99997438
0.99997429
0.9999742
0.99997411
0.99997402
0.99997393
0.99997384
0.99997375
0.99997366
0.99997357
0.99997348
0.99997339
0.9999733
0.99997321
0.99997311
0.99997302
0.99997293
0.99997284
0.99997275
0.99997265
0.99997256
0.99997247
0.99997237
0.99997228
0.99997219
0.99997209
0.999972
0.99997191
0.99997181
0.99997172
0.99997162
0.99997153
0.99997143
0.99997134
0.99997124
0.99997115
0.99997105
0.99997095
0.99997086
0.99997076
0.99997066
0.99997056
0.99997047
0.99997037
0.99997027
0.99997017
0.99997007
0.99996998
0.99996988
0.99996978
0.99996968
0.24790388
0.62697268
0.77150961
0.845291
0.88972707
0.91899611
0.93935108
0.95400587
0.96480172
0.97288143
0.97899676
0.98366363
0.98724729
0.99001236
0.99215394
0.99381777
0.99511382
0.99612577
0.99691763
0.99753858
0.99802659
0.998411
0.99871456
0.9989549
0.99914575
0.99929777
0.99941927
0.99951672
0.99959518
0.99965861
0.99971009
0.99975205
0.9997864
0.99981465
0.99983798
0.99985733
0.99987344
0.99988692
0.99989824
0.99990778
0.99991584
0.99992268
0.9999285
0.99993347
0.99993771
0.99994133
0.99994443
0.99994709
0.99994936
0.99995129
0.99995294
0.99995433
0.9999555
0.99995648
0.99995728
0.99995793
0.99995844
0.99995883
0.9999591
0.99995928
0.99995937
0.99995938
0.99995931
0.99995918
0.99995898
0.99995874
0.99995844
0.99995809
0.99995714
0.99995534
0.99995278
0.99994955
0.99994573
0.99994141
0.99993665
0.99993151
0.99992605
0.99992033
0.9999144
0.9999083
0.99990209
0.9998958
0.99988948
0.99988315
0.99987685
0.99987061
0.99986445
0.99985841
0.99985249
0.99984673
0.99984113
0.9998357
0.99983047
0.99982543
0.99982059
0.99981597
0.99981155
0.99980734
0.99980335
0.99979957
0.999796
0.99979263
0.99978946
0.99978648
0.99978369
0.99978108
0.99977864
0.99977637
0.99977426
0.9997723
0.99977049
0.9997688
0.99976725
0.99976581
0.99976449
0.99976327
0.99976215
0.99976112
0.99976017
0.99975929
0.99975849
0.99975776
0.99975708
0.99975646
0.99975588
0.99975535
0.99975486
0.9997544
0.99975396
0.99975352
0.99975309
0.99975266
0.99975223
0.99975181
0.99975138
0.99975096
0.99975054
0.99975012
0.9997497
0.99974929
0.99974887
0.99974845
0.99974804
0.99974762
0.9997472
0.99974678
0.99974637
0.99974595
0.99974553
0.99974511
0.99974469
0.99974426
0.99974384
0.99974342
0.99974299
0.99974256
0.99974214
0.99974171
0.99974128
0.99974085
0.99974041
0.99973998
0.99973955
0.99973911
0.99973867
0.99973824
0.9997378
0.99973736
0.99973692
0.99973648
0.99973604
0.99973559
0.99973515
0.99973471
0.99973426
0.99973382
0.99973337
0.99973292
0.99973248
0.99973203
0.99973158
0.99973113
0.99973068
0.99973023
0.99972978
0.99972933
0.99972887
0.99972842
0.99972796
0.9997275
0.99972704
0.99972659
0.99972613
0.99972567
0.99972521
0.99972475
0.9997243
0.99972384
0.99972338
0.99972292
0.00013650388
0.00058417418
0.14074106
0.29872986
0.43300107
0.54081535
0.62671209
0.69545812
0.75082566
0.79565841
0.83210787
0.8618279
0.88611099
0.90598119
0.92225834
0.93560376
0.94655371
0.95554464
0.96293262
0.96900858
0.9740104
0.97813269
0.98153462
0.98434638
0.98667439
0.98860565
0.99021121
0.99154913
0.99266683
0.99360306
0.99438947
0.99505195
0.9956117
0.99608606
0.9964893
0.9968331
0.99712709
0.99737923
0.99759605
0.99778301
0.99794462
0.99808462
0.99820616
0.99831186
0.99840392
0.99848419
0.99855426
0.99861543
0.99866884
0.99871546
0.9987561
0.99879149
0.99882222
0.99884883
0.99887179
0.99889148
0.99890827
0.99892246
0.99893433
0.99894412
0.99895205
0.99895832
0.99896308
0.99896652
0.99896875
0.99896992
0.99897015
0.99896953
0.9989665
0.99896043
0.9989517
0.99894064
0.99892758
0.9989128
0.99889655
0.99887909
0.99886064
0.99884139
0.99882154
0.99880125
0.99878069
0.99875999
0.99873928
0.99871868
0.99869828
0.99867819
0.99865847
0.99863921
0.99862045
0.99860226
0.99858466
0.9985677
0.99855141
0.99853579
0.99852087
0.99850665
0.99849314
0.99848032
0.9984682
0.99845676
0.99844599
0.99843588
0.9984264
0.99841753
0.99840926
0.99840155
0.99839439
0.99838774
0.99838159
0.99837591
0.99837067
0.99836584
0.99836141
0.99835734
0.99835362
0.99835022
0.99834711
0.99834428
0.9983417
0.99833935
0.99833722
0.99833528
0.99833353
0.99833194
0.99833049
0.99832918
0.99832799
0.99832691
0.99832587
0.99832485
0.99832385
0.99832287
0.9983219
0.99832094
0.99831999
0.99831905
0.99831812
0.9983172
0.99831628
0.99831536
0.99831444
0.99831352
0.99831261
0.99831169
0.99831077
0.99830985
0.99830893
0.998308
0.99830707
0.99830613
0.9983052
0.99830425
0.9983033
0.99830235
0.99830139
0.99830043
0.99829946
0.99829849
0.99829751
0.99829652
0.99829553
0.99829454
0.99829354
0.99829253
0.99829152
0.99829051
0.99828949
0.99828847
0.99828744
0.99828641
0.99828537
0.99828434
0.99828329
0.99828225
0.9982812
0.99828015
0.9982791
0.99827804
0.99827699
0.99827593
0.99827487
0.9982738
0.99827274
0.99827166
0.99827059
0.99826951
0.99826843
0.99826734
0.99826626
0.99826517
0.99826408
0.99826299
0.9982619
0.9982608
0.99825971
0.99825862
0.99825753
0.99825644
0.99825535
0.99825426
6.8787214e-08
3.923507e-07
9.0079998e-05
0.032500666
0.0991531
0.18396654
0.27404343
0.36188058
0.44369285
0.51783914
0.58385782
0.64192236
0.69253599
0.73635765
0.77410127
0.80647757
0.83416129
0.85777405
0.87787678
0.894968
0.9094858
0.92181161
0.9322752
0.94115995
0.94870819
0.9551263
0.96058945
0.96524589
0.96922085
0.97261985
0.97553177
0.97803133
0.98018137
0.9820347
0.9836357
0.9850217
0.98622411
0.98726941
0.98817991
0.98897446
0.98966903
0.99027712
0.99081022
0.9912781
0.9916891
0.99205035
0.99236796
0.99264718
0.99289256
0.99310801
0.99329693
0.99346227
0.99360663
0.99373226
0.99384116
0.99393508
0.99401558
0.99408403
0.99414168
0.99418963
0.99422886
0.99426027
0.99428468
0.9943028
0.99431531
0.99432281
0.99432586
0.99432496
0.99431636
0.99429926
0.99427473
0.99424376
0.99420727
0.9941661
0.99412099
0.99407266
0.99402173
0.99396878
0.99391435
0.99385891
0.99380289
0.99374668
0.99369063
0.99363504
0.99358018
0.99352629
0.99347358
0.99342222
0.99337236
0.99332412
0.9932776
0.99323287
0.99319
0.99314902
0.99310995
0.9930728
0.99303757
0.99300424
0.99297279
0.99294316
0.99291534
0.99288925
0.99286485
0.99284208
0.99282088
0.99280117
0.9927829
0.99276598
0.99275036
0.99273597
0.99272272
0.99271057
0.99269943
0.99268925
0.99267995
0.99267149
0.99266379
0.9926568
0.99265048
0.99264475
0.99263958
0.99263492
0.99263072
0.99262694
0.99262354
0.99262049
0.99261774
0.99261527
0.99261291
0.99261064
0.99260845
0.99260632
0.99260425
0.99260223
0.99260024
0.99259829
0.99259637
0.99259447
0.99259259
0.99259072
0.99258886
0.992587
0.99258514
0.99258327
0.99258141
0.99257953
0.99257764
0.99257574
0.99257382
0.99257189
0.99256994
0.99256798
0.99256599
0.99256399
0.99256197
0.99255992
0.99255786
0.99255577
0.99255367
0.99255154
0.99254939
0.99254723
0.99254504
0.99254284
0.99254062
0.99253838
0.99253612
0.99253385
0.99253156
0.99252926
0.99252694
0.99252461
0.99252226
0.99251991
0.99251754
0.99251517
0.99251278
0.99251039
0.99250798
0.99250557
0.99250316
0.99250074
0.9924983
0.99249586
0.9924934
0.99249094
0.99248847
0.99248599
0.99248351
0.99248102
0.99247853
0.99247604
0.99247355
0.99247106
0.99246857
0.99246607
0.99246358
0.99246109
0.9924586
0.99245612
3.5528562e-11
2.5127488e-10
5.6349355e-08
2.1245705e-05
0.0083929312
0.033136128
0.075102961
0.13068469
0.19497539
0.26345728
0.33257809
0.39979941
0.46345068
0.52253852
0.57656914
0.62540148
0.66913281
0.70801296
0.74238177
0.77262474
0.79914233
0.82232954
0.84256288
0.8601927
0.8755392
0.88889112
0.90050604
0.91061179
0.91940858
0.92707135
0.93375231
0.93958344
0.94467886
0.94913705
0.95304289
0.9564694
0.95947946
0.96212711
0.96445887
0.96651478
0.96832933
0.96993227
0.97134927
0.97260254
0.97371134
0.97469234
0.97556007
0.9763272
0.97700476
0.97760246
0.97812879
0.97859126
0.97899647
0.97935029
0.97965793
0.97992403
0.98015274
0.98034779
0.98051253
0.98064998
0.98076287
0.98085368
0.98092468
0.98097791
0.98101525
0.98103842
0.98104899
0.9810484
0.98102962
0.9809932
0.98094142
0.98087641
0.98080008
0.98071421
0.9806204
0.98052013
0.98041474
0.98030545
0.98019334
0.98007942
0.97996457
0.97984958
0.97973516
0.97962193
0.97951042
0.97940111
0.9792944
0.97919063
0.97909009
0.97899299
0.97889953
0.97880984
0.97872402
0.97864214
0.97856421
0.97849025
0.97842022
0.97835408
0.97829177
0.97823319
0.97817827
0.97812687
0.97807889
0.97803419
0.97799265
0.97795413
0.97791848
0.97788557
0.97785525
0.97782737
0.9778018
0.97777841
0.97775704
0.97773758
0.97771989
0.97770385
0.97768933
0.97767623
0.97766444
0.97765384
0.97764434
0.97763585
0.97762827
0.97762153
0.97761554
0.97761022
0.97760551
0.97760135
0.97759742
0.97759371
0.9775902
0.97758685
0.97758365
0.97758057
0.9775776
0.97757472
0.9775719
0.97756914
0.97756642
0.97756374
0.97756107
0.97755841
0.97755574
0.97755307
0.97755039
0.97754768
0.97754494
0.97754217
0.97753936
0.97753651
0.97753361
0.97753067
0.97752768
0.97752464
0.97752155
0.9775184
0.9775152
0.97751195
0.97750865
0.97750529
0.97750188
0.97749842
0.97749491
0.97749135
0.97748775
0.9774841
0.9774804
0.97747667
0.97747289
0.97746908
0.97746523
0.97746134
0.97745742
0.97745348
0.9774495
0.9774455
0.97744147
0.97743743
0.97743336
0.97742927
0.97742517
0.97742105
0.97741691
0.97741275
0.97740856
0.97740436
0.97740015
0.97739592
0.97739168
0.97738744
0.97738319
0.97737894
0.97737468
0.97737043
0.97736617
0.97736192
0.97735767
0.97735342
0.97734917
0.97734493
1.867903e-14
1.6300272e-13
4.5025893e-11
3.3224078e-08
4.274816e-05
0.0027698723
0.012562381
0.032686446
0.064023079
0.1054313
0.15464347
0.20904185
0.26614751
0.32386146
0.38054284
0.43499585
0.48641349
0.53430647
0.57843253
0.61873349
0.65528236
0.68824113
0.71782789
0.74429217
0.76789693
0.78890573
0.80757415
0.82414413
0.8388407
0.85187037
0.86342069
0.87366052
0.88274096
0.8907965
0.89794634
0.90429579
0.90993771
0.91495377
0.91941577
0.92338674
0.92692202
0.93007021
0.932874
0.93537088
0.93759388
0.93957207
0.94133111
0.94289368
0.94427984
0.94550742
0.94659225
0.94754844
0.94838862
0.94912407
0.94976493
0.95032034
0.95079854
0.95120697
0.9515524
0.95184097
0.95207829
0.95226945
0.95241912
0.95253159
0.95261078
0.95266028
0.9526834
0.95268317
0.95264863
0.95258455
0.95249483
0.95238307
0.95225256
0.95210631
0.95194707
0.95177733
0.95159937
0.95141523
0.95122677
0.95103564
0.95084334
0.95065116
0.95046028
0.95027171
0.95008634
0.94990493
0.94972812
0.94955645
0.94939038
0.94923025
0.94907635
0.94892889
0.94878799
0.94865375
0.94852618
0.94840528
0.94829099
0.9481832
0.9480818
0.94798663
0.94789752
0.94781428
0.9477367
0.94766457
0.94759764
0.9475357
0.9474785
0.94742581
0.94737738
0.94733297
0.94729236
0.9472553
0.94722158
0.94719097
0.94716326
0.94713825
0.94711574
0.94709553
0.94707746
0.94706134
0.94704701
0.94703432
0.94702311
0.94701326
0.94700464
0.94699711
0.94699057
0.94698484
0.94697956
0.94697472
0.94697026
0.94696614
0.9469623
0.94695871
0.94695532
0.9469521
0.94694902
0.94694605
0.94694316
0.94694032
0.94693752
0.94693474
0.94693195
0.94692914
0.94692629
0.9469234
0.94692045
0.94691743
0.94691434
0.94691116
0.94690789
0.94690453
0.94690106
0.9468975
0.94689383
0.94689006
0.94688618
0.94688219
0.9468781
0.9468739
0.9468696
0.9468652
0.94686069
0.94685609
0.9468514
0.94684661
0.94684174
0.94683678
0.94683175
0.94682664
0.94682145
0.9468162
0.94681088
0.94680551
0.94680008
0.94679459
0.94678906
0.94678349
0.94677787
0.94677222
0.94676654
0.94676083
0.94675507
0.94674928
0.94674345
0.9467376
0.94673173
0.94672583
0.94671993
0.94671401
0.94670808
0.94670215
0.94669621
0.94669027
0.94668433
0.9466784
0.94667247
0.94666654
0.94666062
0.9466547
9.9528203e-18
1.1616098e-16
5.0950515e-14
5.5429835e-11
7.1972277e-08
8.7245101e-05
0.0012945263
0.0058200568
0.01613287
0.033955466
0.059824515
0.0931967
0.13280525
0.17703688
0.22422398
0.27283116
0.3215524
0.36934515
0.4154252
0.45924022
0.500434
0.53880882
0.57429012
0.60689546
0.63670845
0.66385769
0.68850017
0.7108086
0.73096201
0.74913887
0.76551246
0.78024765
0.79349907
0.80541007
0.81611234
0.82572606
0.83436026
0.84211346
0.84907437
0.85532269
0.86092986
0.86595987
0.87046997
0.87451138
0.87812995
0.88136669
0.88425836
0.8868379
0.88913492
0.89117601
0.89298513
0.8945839
0.89599184
0.89722665
0.89830437
0.89923959
0.90004559
0.90073449
0.90131736
0.90180435
0.90220474
0.90252708
0.9027792
0.9029683
0.90310103
0.90318348
0.90322129
0.903219
0.90316359
0.90306628
0.90293272
0.90276809
0.90257713
0.90236419
0.90213322
0.90188781
0.9016312
0.90136634
0.90109585
0.9008221
0.90054718
0.90027294
0.90000102
0.89973284
0.89946961
0.8992124
0.8989621
0.89871943
0.898485
0.89825928
0.89804264
0.89783534
0.89763754
0.89744934
0.89727075
0.89710171
0.89694213
0.89679186
0.89665068
0.89651839
0.8963947
0.89627935
0.89617202
0.89607239
0.89598014
0.89589492
0.89581639
0.89574421
0.89567803
0.89561751
0.89556232
0.89551213
0.89546662
0.89542547
0.89538839
0.89535508
0.89532526
0.89529867
0.89527506
0.89525417
0.89523578
0.89521967
0.89520563
0.89519348
0.89518302
0.89517409
0.89516653
0.89515994
0.89515415
0.89514907
0.89514461
0.89514069
0.89513724
0.89513418
0.89513145
0.89512899
0.89512676
0.8951247
0.89512276
0.89512091
0.89511911
0.89511733
0.89511554
0.89511371
0.89511182
0.89510985
0.89510778
0.89510559
0.89510328
0.89510082
0.89509822
0.89509546
0.89509253
0.89508943
0.89508616
0.89508271
0.89507909
0.89507529
0.89507131
0.89506716
0.89506284
0.89505835
0.8950537
0.89504889
0.89504392
0.8950388
0.89503354
0.89502813
0.8950226
0.89501695
0.89501117
0.89500528
0.89499929
0.8949932
0.89498702
0.89498075
0.8949744
0.89496799
0.89496151
0.89495497
0.89494837
0.89494172
0.89493501
0.89492826
0.89492145
0.89491462
0.89490775
0.89490085
0.89489394
0.894887
0.89488006
0.89487311
0.89486615
0.8948592
0.89485224
0.89484529
0.89483834
0.8948314
0.89482446
0.89481753
6.391843e-21
1.1478473e-19
7.2468064e-17
8.7884468e-14
1.0509861e-10
1.0843039e-07
8.7755926e-05
0.00078586597
0.0032735903
0.0091307477
0.019814522
0.03624229
0.058641573
0.086622025
0.11935702
0.15578286
0.19476593
0.23522117
0.27618397
0.3168451
0.35655956
0.39483901
0.43133505
0.46581843
0.49815755
0.52829814
0.5562452
0.58204753
0.605785
0.62755823
0.64748059
0.66567195
0.68225411
0.69734743
0.71106847
0.72352844
0.73483223
0.74507789
0.75435641
0.76275182
0.77034138
0.77719587
0.78338003
0.78895291
0.79396837
0.79847548
0.80251891
0.80613938
0.80937397
0.81225651
0.81481787
0.81708626
0.81908746
0.8208451
0.82238081
0.82371447
0.82486432
0.82584717
0.82667847
0.82737247
0.8279423
0.8284001
0.82875705
0.82902349
0.82920895
0.82932224
0.82937148
0.82935207
0.82927322
0.82914263
0.82896742
0.8287541
0.82850862
0.82823643
0.82794249
0.82763127
0.82730683
0.82697283
0.82663254
0.82628886
0.82594439
0.8256014
0.82526189
0.82492759
0.82459999
0.82428036
0.82396976
0.82366907
0.82337899
0.82310008
0.82283274
0.82257728
0.82233385
0.82210254
0.82188334
0.82167616
0.82148085
0.82129718
0.82112489
0.82096368
0.82081321
0.8206731
0.82054297
0.8204224
0.82031098
0.82020827
0.82011385
0.82002727
0.8199481
0.81987593
0.81981032
0.81975087
0.81969718
0.81964886
0.81960553
0.81956683
0.81953243
0.81950197
0.81947516
0.81945169
0.81943127
0.81941364
0.81939854
0.81938573
0.81937499
0.81936611
0.81935889
0.81935277
0.81934776
0.81934374
0.81934058
0.81933817
0.8193364
0.81933517
0.8193344
0.819334
0.81933391
0.81933404
0.81933435
0.81933477
0.81933525
0.81933575
0.81933622
0.81933664
0.81933696
0.81933716
0.81933721
0.8193371
0.81933679
0.81933629
0.81933557
0.81933462
0.81933343
0.81933201
0.81933033
0.81932841
0.81932623
0.8193238
0.81932113
0.8193182
0.81931503
0.81931163
0.81930799
0.81930412
0.81930003
0.81929574
0.81929123
0.81928654
0.81928166
0.8192766
0.81927137
0.81926599
0.81926046
0.81925479
0.81924899
0.81924307
0.81923704
0.81923091
0.81922469
0.81921839
0.81921201
0.81920555
0.81919902
0.81919243
0.81918579
0.8191791
0.81917238
0.81916562
0.81915884
0.81915204
0.81914523
0.8191384
0.81913158
0.81912475
0.81911792
0.81911109
0.81910427
0.81909746
0.81909066
0.81908386
1.779956e-20
1.1768621e-19
1.0601043e-18
1.3314187e-15
2.1727145e-12
3.3254595e-09
4.8115921e-06
8.9786698e-05
0.00057367438
0.0021526426
0.0058248148
0.012637037
0.023415056
0.03859878
0.05820827
0.081904733
0.10909634
0.13904974
0.17098523
0.20414708
0.23784918
0.27149984
0.30461117
0.33679775
0.36776888
0.39731726
0.42530644
0.45165825
0.47634109
0.49935962
0.52074584
0.54055163
0.55884272
0.57569387
0.59118503
0.60539846
0.61841658
0.63032035
0.64118815
0.65109504
0.6601123
0.66830715
0.67574266
0.6824778
0.68856749
0.6940628
0.69901111
0.70345635
0.7074392
0.71099734
0.71416562
0.71697632
0.71945932
0.72164229
0.72355086
0.72520876
0.72663802
0.72785904
0.72889074
0.72975066
0.73045509
0.73101911
0.7314567
0.73178081
0.73200345
0.73213571
0.73218784
0.7321526
0.73205218
0.73189516
0.73168949
0.73144243
0.7311606
0.73085007
0.73051632
0.73016433
0.72979859
0.72942313
0.72904153
0.728657
0.72827237
0.72789013
0.72751243
0.72714116
0.72677791
0.72642405
0.72608069
0.72574878
0.72542904
0.72512203
0.72482819
0.72454777
0.72428095
0.72402778
0.72378819
0.72356208
0.72334923
0.72314938
0.72296222
0.72278739
0.72262449
0.72247309
0.72233275
0.72220299
0.72208335
0.72197334
0.72187246
0.72178023
0.72169618
0.72161981
0.72155066
0.72148827
0.72143221
0.72138203
0.72133732
0.72129769
0.72126274
0.72123211
0.72120546
0.72118245
0.72116277
0.72114612
0.72113222
0.72112081
0.72111165
0.7211045
0.72109914
0.72109494
0.7210921
0.72109047
0.72108988
0.7210902
0.72109129
0.72109304
0.72109534
0.72109809
0.72110119
0.72110457
0.72110814