/*--------------------------------*- C++ -*----------------------------------*\
| =========                 |                                                 |
| \\      /  F ield         | OpenFOAM: The Open Source CFD Toolbox           |
|  \\    /   O peration     | Version:  2406                                  |
|   \\  /    A nd           | Website:  www.openfoam.com                      |
|    \\/     M anipulation  |                                                 |
\*---------------------------------------------------------------------------*/
FoamFile
{
    version     2.0;
    format      ascii;
    arch        "LSB;label=32;scalar=64";
    class       volScalarField;
    location    "2500";
    object      T;
}
// * * * * * * * * * * * * * * * * * * * * * * * * * * * * * * * * * * * * * //

dimensions      [0 0 0 0 0 0 0];

internalField   nonuniform List<scalar> 
8600
(
1
1
1
1
1
1
1
1
1
1
1
1
1
1
1
1
1
1
1
1
1
1
1
1
1
1
1
1
1
1
1
1
1
1
1
1
1
1
1
1
1
1
1
1
1
1
1
1
1
1
1
1
1
1
1
1
1
1
1
1
1
1
1
1
1
1
1
1
1
1
1
1
1
1
1
1
1
1
1
1
1
1
1
1
1
1
1
1
1
1
1
1
1
1
1
1
1
1
1
1
1
1
1
1
1
1
1
1
1
1
1
1
1
1
1
1
1
1
1
1
1
1
1
1
1
1
1
1
1
1
1
1
1
1
1
1
1
1
1
1
1
1
1
1
1
1
1
1
1
1
1
1
1
1
1
1
1
1
1
1
1
1
1
1
1
1
1
1
1
1
1
1
1
1
1
1
1
1
1
1
1
1
1
1
1
1
1
1
1
1
1
1
1
1
1
1
1
1
1
1
1
1
1
1
1
1
1
1
1
1
1
1
1
1
1
1
1
1
1
1
1
1
1
1
1
1
1
1
1
1
1
1
1
1
1
1
1
1
1
1
1
1
1
1
1
1
1
1
1
1
1
1
1
1
1
1
1
1
1
1
1
1
1
1
1
1
1
1
1
1
1
1
1
1
1
1
1
1
1
1
1
1
1
1
1
1
1
1
1
1
1
1
1
1
1
1
1
1
1
1
1
1
1
1
1
1
1
1
1
1
1
1
1
1
1
1
1
1
1
1
1
1
1
1
1
1
1
1
1
1
1
1
1
1
1
1
1
1
1
1
1
1
1
1
1
1
1
1
1
1
1
1
1
1
1
1
1
1
1
1
1
1
1
1
1
1
1
1
1
1
1
1
1
1
1
1
1
1
1
1
1
1
1
1
1
1
1
1
1
1
1
1
1
1
1
1
1
1
1
1
1
1
1
1
1
1
1
1
1
1
1
1
1
1
1
1
1
1
1
1
1
1
1
1
1
1
1
1
1
1
1
1
1
1
1
1
1
1
1
1
1
1
1
1
1
1
1
1
1
1
1
1
1
1
1
1
1
1
1
1
1
1
1
1
1
1
1
1
1
1
1
1
1
1
1
1
1
1
1
1
1
1
1
1
1
1
1
1
1
1
1
1
1
1
1
1
1
1
1
1
1
1
1
1
1
1
1
1
1
1
1
1
1
1
1
1
1
1
1
1
1
1
1
1
1
1
1
1
1
1
1
1
1
1
1
1
1
1
1
1
1
1
1
1
1
1
1
1
1
1
1
1
1
1
1
1
1
1
1
1
1
1
1
1
1
1
1
1
1
1
1
1
1
1
1
1
1
1
1
1
1
1
1
1
1
1
1
1
1
1
1
1
1
1
1
1
1
1
1
1
1
1
1
1
1
1
1
1
1
1
1
1
1
1
1
1
1
1
1
1
1
1
1
1
1
1
1
1
1
1
1
1
1
1
1
1
1
1
1
1
1
1
1
1
1
1
1
1
1
1
1
1
1
1
1
1
1
1
1
1
1
1
1
1
1
1
1
1
1
1
1
1
1
1
1
1
1
1
1
1
1
1
1
1
1
1
1
1
1
1
1
1
1
1
0.99999999
0.99999999
0.99999999
0.99999999
0.99999999
0.99999999
0.99999999
0.99999999
0.99999999
0.99999999
0.99999999
0.99999999
0.99999999
0.99999999
0.99999999
0.99999999
0.99999999
0.99999999
0.99999999
0.99999999
0.99999999
0.99999999
0.99999999
0.99999999
0.99999999
0.99999999
0.99999999
0.99999999
0.99999999
0.99999999
0.99999999
0.99999999
0.99999999
0.99999999
0.99999999
0.99999999
0.99999999
0.99999999
0.99999999
0.99999999
0.99999999
0.99999999
0.99999999
0.99999999
0.99999999
0.99999999
0.99999999
0.99999999
0.99999999
0.99999999
0.99999999
0.99999999
0.99999999
0.99999999
0.99999999
0.99999999
0.99999999
0.99999999
0.99999999
0.99999999
0.99999999
0.99999999
0.99999999
0.99999999
0.99999999
0.99999999
0.99999999
0.99999999
0.99999999
0.99999999
0.99999999
0.99999999
0.99999999
0.99999999
0.99999999
0.99999999
0.99999999
0.99999999
0.99999999
0.99999999
0.99999999
0.99999999
0.99999999
0.99999999
0.99999999
0.99999999
0.99999999
0.99999999
0.99999999
0.99999999
0.99999999
0.99999999
0.99999999
0.99999999
0.99999999
0.99999999
0.99999999
0.99999999
0.99999999
0.99999999
0.99999999
0.99999999
0.99999999
0.99999999
0.99999999
0.99999999
1
1
1
1
1
1
1
1
1
1
1
1
1
1
1
1
1
1
1
1
1
1
1
1
1
1
1
1
1
1
1
1
1
1
1
1
1
1
1
1
1
1
1
1
1
1
1
1
1
1
1
1
1
1
1
1
1
1
1
1
1
1
1
1
1
1
1
1
1
1
1
1
1
1
1
1
1
1
1
1
1
1
1
1
1
0.99999999
0.99999999
0.99999999
0.99999998
0.99999998
0.99999998
0.99999997
0.99999997
0.99999997
0.99999997
0.99999996
0.99999996
0.99999996
0.99999996
0.99999996
0.99999996
0.99999996
0.99999996
0.99999996
0.99999996
0.99999996
0.99999996
0.99999997
0.99999997
0.99999997
0.99999997
0.99999997
0.99999997
0.99999997
0.99999997
0.99999997
0.99999997
0.99999997
0.99999997
0.99999997
0.99999997
0.99999997
0.99999997
0.99999997
0.99999997
0.99999997
0.99999997
0.99999997
0.99999997
0.99999997
0.99999997
0.99999996
0.99999996
0.99999996
0.99999996
0.99999996
0.99999996
0.99999996
0.99999996
0.99999996
0.99999996
0.99999996
0.99999996
0.99999996
0.99999996
0.99999996
0.99999996
0.99999996
0.99999996
0.99999996
0.99999996
0.99999996
0.99999996
0.99999996
0.99999996
0.99999996
0.99999996
0.99999996
0.99999996
0.99999996
0.99999996
0.99999996
0.99999996
0.99999996
0.99999996
0.99999996
0.99999996
0.99999996
0.99999996
0.99999996
0.99999996
0.99999996
0.99999996
0.99999996
0.99999996
0.99999996
0.99999996
0.99999996
0.99999996
0.99999996
0.99999996
0.99999996
0.99999996
0.99999996
0.99999996
0.99999996
0.99999996
0.99999996
0.99999996
0.99999996
0.99999996
0.99999996
0.99999996
0.99999996
0.99999996
0.99999996
0.99999996
0.99999996
0.99999996
0.99999996
1
1
1
1
1
1
1
1
1
1
1
1
1
1
1
1
1
1
1
1
1
1
1
1
1
1
1
1
1
1
1
1
1
1
1
1
1
1
1
1
1
1
1
1
1
1
1
1
1
1
1
1
0.99999999
0.99999999
0.99999999
0.99999999
0.99999999
0.99999999
0.99999999
0.99999999
0.99999999
0.99999999
0.99999999
0.99999999
0.99999999
0.99999999
0.99999999
0.99999999
0.99999999
0.99999999
0.99999999
0.99999999
0.99999999
0.99999999
0.99999999
0.99999999
0.99999999
0.99999999
0.99999999
0.99999999
0.99999999
0.99999999
0.99999998
0.99999998
0.99999997
0.99999996
0.99999994
0.99999993
0.99999991
0.99999989
0.99999987
0.99999985
0.99999983
0.99999981
0.9999998
0.99999979
0.99999979
0.99999979
0.99999979
0.99999979
0.99999979
0.99999979
0.99999979
0.99999979
0.9999998
0.9999998
0.9999998
0.9999998
0.99999981
0.99999981
0.99999981
0.99999981
0.99999982
0.99999982
0.99999982
0.99999983
0.99999983
0.99999983
0.99999983
0.99999983
0.99999983
0.99999984
0.99999984
0.99999984
0.99999984
0.99999984
0.99999983
0.99999983
0.99999983
0.99999982
0.99999982
0.99999981
0.9999998
0.9999998
0.99999979
0.99999979
0.99999979
0.99999978
0.99999978
0.99999978
0.99999978
0.99999978
0.99999978
0.99999978
0.99999978
0.99999978
0.99999978
0.99999978
0.99999978
0.99999978
0.99999978
0.99999978
0.99999978
0.99999978
0.99999978
0.99999978
0.99999979
0.99999979
0.99999979
0.99999979
0.99999979
0.99999979
0.99999979
0.99999979
0.99999979
0.99999979
0.99999979
0.99999979
0.99999979
0.99999979
0.99999979
0.99999979
0.99999979
0.99999979
0.99999979
0.99999979
0.99999979
0.99999979
0.99999979
0.99999979
0.99999979
0.99999979
0.99999979
0.99999979
0.99999979
0.9999998
0.9999998
0.9999998
0.9999998
0.9999998
0.9999998
0.9999998
0.9999998
0.9999998
0.9999998
0.9999998
0.9999998
0.9999998
0.9999998
0.9999998
1
1
1
1
1
1
1
1
1
1
1
1
1
1
1
1
1
1
1
1
1
1
1
1
1
1
1
1
1
1
1
1
1
1
1
1
1
1
1
1
1
1
1
1
1
1
1
1
1
0.99999999
0.99999998
0.99999996
0.99999994
0.99999993
0.99999992
0.99999991
0.99999991
0.99999991
0.99999992
0.99999992
0.99999992
0.99999992
0.99999993
0.99999993
0.99999993
0.99999994
0.99999994
0.99999994
0.99999995
0.99999995
0.99999995
0.99999996
0.99999996
0.99999996
0.99999996
0.99999996
0.99999996
0.99999996
0.99999996
0.99999996
0.99999994
0.99999993
0.9999999
0.99999987
0.99999982
0.99999975
0.99999967
0.99999958
0.99999949
0.99999938
0.99999928
0.99999918
0.99999909
0.99999902
0.99999896
0.99999892
0.9999989
0.99999889
0.99999889
0.99999889
0.9999989
0.99999891
0.99999892
0.99999893
0.99999894
0.99999896
0.99999897
0.99999899
0.99999901
0.99999902
0.99999904
0.99999906
0.99999908
0.99999909
0.99999911
0.99999912
0.99999914
0.99999915
0.99999916
0.99999917
0.99999917
0.99999918
0.99999918
0.99999919
0.99999919
0.99999918
0.99999918
0.99999916
0.99999915
0.99999913
0.9999991
0.99999908
0.99999905
0.99999903
0.99999901
0.99999899
0.99999897
0.99999896
0.99999895
0.99999895
0.99999895
0.99999895
0.99999895
0.99999895
0.99999895
0.99999895
0.99999896
0.99999896
0.99999896
0.99999897
0.99999897
0.99999897
0.99999898
0.99999898
0.99999898
0.99999899
0.99999899
0.99999899
0.999999
0.999999
0.999999
0.999999
0.99999901
0.99999901
0.99999901
0.99999901
0.99999902
0.99999902
0.99999902
0.99999902
0.99999902
0.99999902
0.99999903
0.99999903
0.99999903
0.99999903
0.99999903
0.99999903
0.99999904
0.99999904
0.99999904
0.99999904
0.99999904
0.99999904
0.99999904
0.99999905
0.99999905
0.99999905
0.99999905
0.99999905
0.99999905
0.99999906
0.99999906
0.99999906
0.99999906
0.99999906
0.99999906
0.99999906
0.99999906
0.99999906
1
1
1
1
1
1
1
1
1
1
1
1
1
1
1
1
1
1
1
1
1
1
1
1
1
1
1
1
1
1
1
1
1
1
1
1
1
1
1
1
1
1
1
1
1
1
1
0.99999998
0.99999996
0.9999999
0.99999981
0.99999968
0.99999954
0.99999942
0.99999934
0.99999933
0.99999934
0.99999935
0.99999936
0.99999938
0.99999941
0.99999943
0.99999946
0.99999949
0.99999952
0.99999955
0.99999958
0.99999961
0.99999964
0.99999966
0.99999968
0.9999997
0.99999972
0.99999973
0.99999974
0.99999975
0.99999975
0.99999975
0.99999974
0.99999971
0.99999964
0.99999954
0.99999939
0.99999919
0.99999893
0.99999861
0.99999824
0.99999781
0.99999736
0.99999689
0.99999643
0.999996
0.99999562
0.99999529
0.99999502
0.99999483
0.99999471
0.99999466
0.99999467
0.99999469
0.99999473
0.99999477
0.99999482
0.99999489
0.99999496
0.99999503
0.99999512
0.9999952
0.99999529
0.99999539
0.99999548
0.99999557
0.99999566
0.99999575
0.99999583
0.9999959
0.99999597
0.99999604
0.99999609
0.99999614
0.99999617
0.9999962
0.99999622
0.99999623
0.99999624
0.99999624
0.99999622
0.99999618
0.99999612
0.99999604
0.99999596
0.99999587
0.99999578
0.99999569
0.99999562
0.99999555
0.99999549
0.99999545
0.99999542
0.9999954
0.9999954
0.99999541
0.99999541
0.99999542
0.99999543
0.99999544
0.99999545
0.99999547
0.99999548
0.9999955
0.99999551
0.99999553
0.99999555
0.99999556
0.99999558
0.9999956
0.99999561
0.99999563
0.99999564
0.99999566
0.99999567
0.99999569
0.9999957
0.99999571
0.99999572
0.99999573
0.99999575
0.99999576
0.99999577
0.99999578
0.99999578
0.99999579
0.9999958
0.99999581
0.99999582
0.99999583
0.99999584
0.99999585
0.99999585
0.99999586
0.99999587
0.99999588
0.99999589
0.9999959
0.9999959
0.99999591
0.99999592
0.99999593
0.99999594
0.99999594
0.99999595
0.99999596
0.99999596
0.99999597
0.99999597
0.99999598
0.99999598
0.99999598
0.99999599
0.99999599
1
1
1
1
1
1
1
1
1
1
1
1
1
1
1
1
1
1
1
1
1
1
1
1
1
1
1
1
1
1
1
1
1
1
1
1
1
1
1
1
1
1
1
1
1
0.99999999
0.99999995
0.99999984
0.9999996
0.99999915
0.99999843
0.99999746
0.99999633
0.99999528
0.99999458
0.99999447
0.99999453
0.99999465
0.99999481
0.99999502
0.99999526
0.99999553
0.9999958
0.99999608
0.99999635
0.99999662
0.99999687
0.99999711
0.99999732
0.99999751
0.99999768
0.99999783
0.99999795
0.99999805
0.99999812
0.99999818
0.99999821
0.99999822
0.99999818
0.99999799
0.99999763
0.99999709
0.99999633
0.99999535
0.99999413
0.99999268
0.99999104
0.99998925
0.99998739
0.99998552
0.9999837
0.99998201
0.99998049
0.99997918
0.9999781
0.99997728
0.99997673
0.99997644
0.99997643
0.99997652
0.99997666
0.99997685
0.99997709
0.99997737
0.9999777
0.99997806
0.99997844
0.99997885
0.99997927
0.99997971
0.99998014
0.99998057
0.99998099
0.9999814
0.99998178
0.99998214
0.99998246
0.99998275
0.99998301
0.99998322
0.9999834
0.99998354
0.99998365
0.99998372
0.99998375
0.99998376
0.99998376
0.99998368
0.99998353
0.99998332
0.99998307
0.9999828
0.99998252
0.99998226
0.99998201
0.9999818
0.99998164
0.99998151
0.99998144
0.99998141
0.99998141
0.99998143
0.99998145
0.99998148
0.99998152
0.99998157
0.99998163
0.99998169
0.99998175
0.99998181
0.99998188
0.99998195
0.99998202
0.99998209
0.99998216
0.99998222
0.99998229
0.99998235
0.99998242
0.99998248
0.99998254
0.9999826
0.99998266
0.99998271
0.99998277
0.99998282
0.99998287
0.99998292
0.99998297
0.99998302
0.99998307
0.99998311
0.99998316
0.9999832
0.99998324
0.99998328
0.99998333
0.99998337
0.99998341
0.99998345
0.99998349
0.99998353
0.99998357
0.99998361
0.99998365
0.99998369
0.99998373
0.99998377
0.9999838
0.99998383
0.99998386
0.99998389
0.99998391
0.99998394
0.99998396
0.99998397
0.99998399
0.999984
0.99998401
0.99998402
1
1
1
1
1
1
1
1
1
1
1
1
1
1
1
1
1
1
1
1
1
1
1
1
1
1
1
1
1
1
1
1
1
1
1
1
1
1
1
1
1
1
1
1
0.99999998
0.99999986
0.99999946
0.99999849
0.99999653
0.99999317
0.99998804
0.99998108
0.99997271
0.99996411
0.99995719
0.99995413
0.99995465
0.99995575
0.99995734
0.99995931
0.99996155
0.99996397
0.99996646
0.99996895
0.99997137
0.99997368
0.99997583
0.9999778
0.99997957
0.99998114
0.99998251
0.99998367
0.99998464
0.99998542
0.99998601
0.99998644
0.9999867
0.99998681
0.99998681
0.99998607
0.99998444
0.99998194
0.99997856
0.99997432
0.99996927
0.99996355
0.9999573
0.99995073
0.99994405
0.99993748
0.9999312
0.99992537
0.99992011
0.99991551
0.99991162
0.99990847
0.99990609
0.99990451
0.99990374
0.99990396
0.99990441
0.99990509
0.99990598
0.99990706
0.99990833
0.99990975
0.99991131
0.99991298
0.99991473
0.99991653
0.99991836
0.99992017
0.99992196
0.99992367
0.99992531
0.99992683
0.99992823
0.9999295
0.99993061
0.99993157
0.99993238
0.99993304
0.99993354
0.99993391
0.99993414
0.99993426
0.99993427
0.99993427
0.99993412
0.99993376
0.99993324
0.99993263
0.99993198
0.99993135
0.99993078
0.9999303
0.99992993
0.9999297
0.9999296
0.9999296
0.99992962
0.99992968
0.99992978
0.99992991
0.99993007
0.99993025
0.99993046
0.99993067
0.9999309
0.99993114
0.99993138
0.99993163
0.99993187
0.99993212
0.99993236
0.99993261
0.99993285
0.99993309
0.99993333
0.99993356
0.9999338
0.99993403
0.99993426
0.99993449
0.99993471
0.99993493
0.99993515
0.99993537
0.99993558
0.99993579
0.999936
0.9999362
0.99993641
0.99993661
0.99993681
0.999937
0.9999372
0.99993739
0.99993758
0.99993777
0.99993796
0.99993814
0.99993832
0.9999385
0.99993867
0.99993883
0.99993899
0.99993914
0.99993928
0.99993941
0.99993954
0.99993965
0.99993975
0.99993984
0.99993991
0.99993998
0.99994003
0.99994008
0.99994011
0.99994014
1
1
1
1
1
1
1
1
1
1
1
1
1
1
1
1
1
1
1
1
1
1
1
1
1
1
1
1
1
1
1
1
1
1
1
1
1
1
1
1
1
1
1
0.99999999
0.99999959
0.99999796
0.99999386
0.99998582
0.99997207
0.99995061
0.99991952
0.99987755
0.99982528
0.99976668
0.99971017
0.99966826
0.9996567
0.99966416
0.99967613
0.99969165
0.99970967
0.99972918
0.99974929
0.99976927
0.99978854
0.99980671
0.99982349
0.99983871
0.99985229
0.9998642
0.99987449
0.9998832
0.99989043
0.99989625
0.99990078
0.9999041
0.99990629
0.99990744
0.99990763
0.99990727
0.9999024
0.99989368
0.99988161
0.9998667
0.99984949
0.99983059
0.99981062
0.99979024
0.99977005
0.99975054
0.99973214
0.9997151
0.99969959
0.9996857
0.99967343
0.99966281
0.99965385
0.99964662
0.99964126
0.99963805
0.99963798
0.9996397
0.99964223
0.99964555
0.99964963
0.99965441
0.9996598
0.99966572
0.99967207
0.99967871
0.99968553
0.9996924
0.99969921
0.99970584
0.9997122
0.99971819
0.99972375
0.99972881
0.99973335
0.99973732
0.99974073
0.99974358
0.99974587
0.99974764
0.99974893
0.99974978
0.99975024
0.99975037
0.99975036
0.99975035
0.99975034
0.99974993
0.99974929
0.99974859
0.99974797
0.99974752
0.99974734
0.99974733
0.99974732
0.99974736
0.99974753
0.99974781
0.9997482
0.99974869
0.99974925
0.99974988
0.99975055
0.99975126
0.999752
0.99975275
0.9997535
0.99975427
0.99975503
0.9997558
0.99975656
0.99975733
0.9997581
0.99975888
0.99975967
0.99976046
0.99976126
0.99976208
0.9997629
0.99976373
0.99976458
0.99976543
0.99976629
0.99976715
0.99976802
0.99976888
0.99976975
0.99977062
0.99977148
0.99977234
0.9997732
0.99977405
0.99977489
0.99977572
0.99977654
0.99977735
0.99977814
0.99977891
0.99977967
0.99978039
0.9997811
0.99978177
0.9997824
0.999783
0.99978356
0.99978407
0.99978454
0.99978496
0.99978533
0.99978565
0.99978593
0.99978615
0.99978634
0.99978648
0.99978659
0.99978666
0.99999397
0.99998862
0.99998455
0.99998161
0.99997961
0.99997837
0.99997771
0.99997747
0.99997752
0.99997777
0.99997816
0.99997866
0.99997925
0.99997997
0.99998082
0.99998182
0.999983
0.99998434
0.99998582
0.99998737
0.99998895
0.99999049
0.99999194
0.99999325
0.99999441
0.9999954
0.99999624
0.99999693
0.99999748
0.99999793
0.99999829
0.99999857
0.99999879
0.99999896
0.9999991
0.9999992
0.99999928
0.99999933
0.99999937
0.9999994
0.99999941
0.99999941
0.9999994
0.99999939
0.99998837
0.99996509
0.99992823
0.99987443
0.99979821
0.99969192
0.99954616
0.99935178
0.99910406
0.99880919
0.99849047
0.99819094
0.99796902
0.99790766
0.99796645
0.99805431
0.99816341
0.99828583
0.99841444
0.99854341
0.99866831
0.99878599
0.99889441
0.99899242
0.99907954
0.99915577
0.99922145
0.99927713
0.99932347
0.99936118
0.99939097
0.99941353
0.99942951
0.99943948
0.99944401
0.99944399
0.99944396
0.99942926
0.99940265
0.99936697
0.9993248
0.99927845
0.99923002
0.99918128
0.99913364
0.99908809
0.99904521
0.99900518
0.9989679
0.9989331
0.99890041
0.99886954
0.99884036
0.99881299
0.99878784
0.99876571
0.99874768
0.99873672
0.99873543
0.99874254
0.99875252
0.99876528
0.99878069
0.99879846
0.99881826
0.99883967
0.99886224
0.99888549
0.99890896
0.9989322
0.99895482
0.99897645
0.9989968
0.99901563
0.99903276
0.99904808
0.99906153
0.99907309
0.99908281
0.99909077
0.99909706
0.99910185
0.99910529
0.99910757
0.99910888
0.99910943
0.9991094
0.99910938
0.99910935
0.99910933
0.9991093
0.99910928
0.99910925
0.99910935
0.99910978
0.99911053
0.99911159
0.99911293
0.99911451
0.99911629
0.99911822
0.99912025
0.99912234
0.99912446
0.99912659
0.9991287
0.99913079
0.99913287
0.99913492
0.99913698
0.99913905
0.99914115
0.9991433
0.99914553
0.99914785
0.99915026
0.99915279
0.99915545
0.99915822
0.99916112
0.99916414
0.99916728
0.99917051
0.99917384
0.99917725
0.99918072
0.99918424
0.99918781
0.9991914
0.999195
0.9991986
0.99920218
0.99920573
0.99920925
0.99921271
0.9992161
0.99921941
0.99922263
0.99922574
0.99922873
0.99923159
0.99923429
0.99923683
0.99923919
0.99924137
0.99924335
0.99924513
0.99924671
0.99924807
0.99924923
0.99925019
0.99925095
0.99925154
0.99925195
0.99925222
0.99925228
0.42697963
0.49772174
0.59294704
0.66180532
0.71412832
0.75564568
0.78927018
0.81668746
0.83907666
0.85739331
0.87246882
0.88504615
0.89579118
0.9052904
0.91403751
0.92241236
0.93065837
0.93886766
0.94698719
0.95485484
0.962259
0.96900113
0.97494087
0.98001458
0.98423088
0.98765264
0.9903753
0.99250751
0.99415687
0.99542127
0.99638468
0.99711611
0.9976705
0.99809059
0.99840899
0.99865032
0.99883293
0.99897045
0.99907288
0.99914757
0.99919982
0.99923333
0.99925052
0.99925274
0.99925269
0.99923205
0.99915119
0.9990052
0.99877966
0.99845029
0.99798419
0.99734543
0.99650729
0.99547046
0.994281
0.99303977
0.99189801
0.99103663
0.99072431
0.99100055
0.99141755
0.99193201
0.99250215
0.99309239
0.99367512
0.99423064
0.99474608
0.99521403
0.99563121
0.99599719
0.99631354
0.99658298
0.99680892
0.99699502
0.99714497
0.99726232
0.99735042
0.99741237
0.99745107
0.9974693
0.99746977
0.9974697
0.99746262
0.99742654
0.99737001
0.99730064
0.99722473
0.99714685
0.99707
0.99699574
0.99692433
0.99685505
0.99678647
0.9967168
0.99664425
0.99656732
0.99648514
0.9963977
0.99630604
0.99621239
0.99612022
0.99603405
0.99595928
0.99590462
0.99588258
0.99589888
0.99593176
0.99597446
0.99602614
0.99608557
0.99615128
0.99622162
0.99629487
0.99636936
0.99644352
0.99651594
0.99658542
0.99665097
0.99671183
0.99676744
0.99681749
0.99686181
0.99690043
0.99693352
0.99696138
0.9969844
0.99700306
0.9970179
0.99702948
0.9970384
0.99704523
0.99705051
0.99705476
0.99705841
0.99706184
0.99706534
0.99706912
0.99707332
0.99707799
0.99708314
0.99708871
0.9970946
0.99710069
0.99710686
0.99711296
0.9971189
0.99712456
0.99712989
0.99713486
0.99713946
0.99714373
0.99714774
0.99715157
0.99715534
0.99715915
0.99716315
0.99716745
0.99717217
0.99717743
0.9971833
0.99718986
0.99719716
0.99720522
0.99721406
0.99722366
0.99723399
0.997245
0.99725663
0.99726883
0.9972815
0.99729459
0.99730799
0.99732164
0.99733545
0.99734934
0.99736324
0.99737707
0.99739075
0.99740423
0.99741742
0.99743026
0.99744269
0.99745464
0.99746606
0.99747688
0.99748706
0.99749655
0.9975053
0.99751327
0.99752043
0.99752678
0.99753229
0.99753697
0.99754083
0.9975439
0.99754622
0.99754784
0.99754882
0.99754897
0.99754661
0.00019182081
0.00036396119
0.00062286251
0.09458554
0.21091765
0.31970946
0.40933325
0.481365
0.53852315
0.58353624
0.61889156
0.64684351
0.6694725
0.68872817
0.70642256
0.72416086
0.74320889
0.76431523
0.78756575
0.81238372
0.83773083
0.86242284
0.88542193
0.90600848
0.92382056
0.93880326
0.95111957
0.96105988
0.96896875
0.97519409
0.98005675
0.98383569
0.98676363
0.98902896
0.99078087
0.99213558
0.99318259
0.99399023
0.99461046
0.9950826
0.99543631
0.99569368
0.99587062
0.99597753
0.99601986
0.99601976
0.99601966
0.99584461
0.99542432
0.99470168
0.99359987
0.99203603
0.98994799
0.98732909
0.98425909
0.98091835
0.97758102
0.9745884
0.9723031
0.97121168
0.97195296
0.97316722
0.97469735
0.97640576
0.97817754
0.97992537
0.98158826
0.9831274
0.98452123
0.98576081
0.98684599
0.98778232
0.9885788
0.98924628
0.98979638
0.99024074
0.99059069
0.99085701
0.99104994
0.99117923
0.9912542
0.99128394
0.9912838
0.99128367
0.99128353
0.99128339
0.99128325
0.99127352
0.9912529
0.99122303
0.99118259
0.99112788
0.99105389
0.9909551
0.99082614
0.9906628
0.99046274
0.99022605
0.9899557
0.98965775
0.98934136
0.98901853
0.98870353
0.98841211
0.98816046
0.98796413
0.987862
0.98787257
0.9879631
0.98808363
0.98823061
0.98839951
0.98858528
0.98878262
0.98898635
0.98919162
0.98939414
0.98959023
0.98977692
0.98995193
0.99011364
0.99026108
0.99039383
0.99051194
0.99061591
0.99070654
0.99078493
0.99085235
0.99091019
0.9909599
0.9910029
0.99104057
0.99107416
0.99110474
0.99113322
0.9911603
0.99118646
0.99121198
0.99123695
0.99126132
0.99128489
0.99130737
0.99132845
0.99134778
0.99136506
0.99138006
0.9913926
0.99140265
0.99141027
0.99140718
0.99139405
0.99137275
0.99134549
0.99131474
0.99128316
0.99125349
0.99122847
0.99121075
0.99120273
0.99120658
0.99121875
0.99123432
0.99125343
0.99127617
0.9913025
0.99133234
0.99136551
0.99140176
0.99144082
0.99148235
0.99152602
0.99157145
0.99161827
0.99166611
0.9917146
0.99176339
0.99181212
0.99186047
0.99190812
0.99195477
0.99200013
0.99204394
0.99208594
0.9921259
0.99216361
0.99219886
0.99223149
0.99226136
0.99228833
0.99231232
0.99233328
0.9923512
0.99236609
0.99237801
0.99238708
0.99239345
0.99239731
0.99239889
0.99239287
0.99238102
0.00013257684
0.00031222347
0.00069290941
0.0016377523
0.0030187489
0.054434296
0.13747175
0.21655892
0.28032392
0.32850145
0.35742327
0.36393006
0.35317865
0.33266529
0.31081196
0.29601208
0.29623822
0.31888865
0.36601177
0.42589678
0.4942274
0.56549714
0.63464674
0.69803646
0.75365398
0.80084559
0.83988545
0.87157378
0.89693704
0.91703471
0.93285089
0.94524413
0.95493316
0.96250272
0.96841895
0.9730481
0.97667516
0.97952049
0.98175398
0.98350647
0.98487851
0.98594667
0.98676752
0.98737973
0.98780433
0.98804458
0.98808386
0.98808372
0.98754184
0.98630171
0.98423171
0.98120468
0.97713991
0.97204892
0.96606846
0.95947061
0.95265054
0.94609746
0.9403494
0.93593237
0.93329392
0.93406556
0.93650994
0.93971908
0.94337557
0.94721303
0.95102852
0.95467967
0.95807506
0.96116276
0.96391984
0.96634351
0.96844432
0.97024106
0.97175721
0.9730185
0.97405137
0.97488203
0.97553598
0.97603773
0.97641073
0.9766772
0.97685804
0.97697254
0.97703757
0.9770674
0.9770734
0.97707322
0.97707304
0.97707285
0.97707267
0.97707249
0.97707231
0.97703558
0.97690268
0.97666565
0.97632046
0.97586799
0.9753147
0.97467296
0.97396086
0.97320178
0.97242334
0.97165615
0.97093213
0.97028279
0.96973731
0.96932091
0.96909155
0.96911054
0.96931833
0.96960016
0.96994519
0.97034088
0.97077404
0.97123162
0.9717014
0.97217243
0.97263536
0.97308255
0.9735081
0.97390778
0.97427888
0.97462008
0.9749312
0.97521304
0.97546717
0.9756957
0.97590114
0.97608618
0.97625356
0.9764059
0.97654559
0.9766747
0.97679492
0.97690747
0.97701318
0.9771124
0.97720514
0.97729108
0.97736965
0.97744014
0.97750181
0.97755393
0.97759591
0.97762739
0.97764824
0.9776522
0.97761924
0.97756083
0.97748081
0.97738286
0.97727124
0.97715062
0.97702595
0.97690235
0.9767849
0.97667853
0.97658784
0.97651699
0.97647476
0.97647026
0.9764986
0.97653936
0.97659263
0.9766582
0.9767356
0.97682412
0.97692289
0.97703086
0.97714689
0.97726975
0.97739818
0.97753091
0.97766667
0.97780422
0.97794236
0.97807995
0.9782159
0.97834919
0.97847886
0.97860403
0.97872387
0.97883763
0.97894465
0.97904433
0.97913614
0.97921967
0.97929456
0.97936059
0.97941762
0.97946562
0.97950468
0.979535
0.97955693
0.97957092
0.97957755
0.97956896
0.97954689
0.97951213
7.7354454e-05
0.00022137248
0.000631504
0.0016207416
0.0037603363
0.0080848999
0.017164883
0.049037354
0.068927386
0.055167597
0.035431065
0.02348415
0.015898249
0.011028561
0.0078978356
0.0058888488
0.0046142542
0.0038372268
0.0097768861
0.044220873
0.10894369
0.19552053
0.2939896
0.39469039
0.49033173
0.57649218
0.65119855
0.71419601
0.76625779
0.80866338
0.8428552
0.87023793
0.89207673
0.90945772
0.92328428
0.93429187
0.94307068
0.95008986
0.95572018
0.96025327
0.96391681
0.96688546
0.96928791
0.97121044
0.97269816
0.97375493
0.97434361
0.97439344
0.97374993
0.9718177
0.96841573
0.96340542
0.95673937
0.94849841
0.93890756
0.92833243
0.91726209
0.90628377
0.89604814
0.88722043
0.88042002
0.87616567
0.87645163
0.8800843
0.88512496
0.89104274
0.8973789
0.90377484
0.90997193
0.91579787
0.92114902
0.92597321
0.93025515
0.93400485
0.93724883
0.94002388
0.94237255
0.94434017
0.94597288
0.94731621
0.94841415
0.94930828
0.95003702
0.95063487
0.95113153
0.95155116
0.95191175
0.95222492
0.95249585
0.95272372
0.95290252
0.95302224
0.95307039
0.95307017
0.95300122
0.95271138
0.95219565
0.95145755
0.95050981
0.94937454
0.94808275
0.94667333
0.94519146
0.94368674
0.94221092
0.94081552
0.93954948
0.93845683
0.93757472
0.93693174
0.93660681
0.93671047
0.93708365
0.93758841
0.93820308
0.93890425
0.93966835
0.94047293
0.94129756
0.94212447
0.94293883
0.94372889
0.94448585
0.94520362
0.94587858
0.94650917
0.9470955
0.94763904
0.94814216
0.94860782
0.94903927
0.94943973
0.94981217
0.95015914
0.95048262
0.95078395
0.95106381
0.95132226
0.95155879
0.95177245
0.95196199
0.952126
0.95226309
0.95237206
0.95245206
0.95250272
0.95252428
0.95247465
0.95236968
0.95221424
0.95201441
0.95177739
0.95151133
0.95122511
0.95092811
0.95062996
0.95034022
0.95006818
0.9498226
0.94961145
0.94944174
0.94931942
0.94925686
0.94927925
0.94934628
0.94944325
0.94956938
0.9497233
0.94990314
0.95010664
0.9503312
0.95057401
0.9508321
0.95110243
0.95138194
0.95166763
0.95195658
0.95224596
0.95253313
0.95281555
0.95309089
0.95335699
0.95361185
0.95385369
0.95408089
0.95429206
0.954486
0.95466171
0.95481842
0.95495559
0.95507291
0.95517034
0.95524806
0.95530655
0.95534652
0.95536897
0.95537458
0.95534642
0.95529401
0.95521866
1.8415807e-05
1.9911411e-05
2.2417534e-05
2.5836736e-05
2.9851818e-05
3.3902366e-05
3.7386974e-05
3.9761867e-05
3.828797e-05
3.3772458e-05
3.0285177e-05
2.9135839e-05
3.0011723e-05
3.2792257e-05
3.6962615e-05
4.2873306e-05
5.2140546e-05
6.3654884e-05
7.6957902e-05
9.2129905e-05
0.0074299985
0.038499064
0.095974922
0.17471756
0.26563615
0.35976688
0.45031184
0.53305848
0.60598001
0.6685938
0.7213668
0.76526563
0.80145536
0.83111701
0.85534874
0.87512099
0.89126384
0.90447175
0.91531615
0.92425987
0.93167015
0.9378288
0.94293919
0.94713111
0.95046465
0.95293429
0.95447409
0.95496971
0.95391193
0.95079307
0.94544022
0.93779011
0.92791538
0.91602668
0.90246057
0.88766332
0.87217551
0.85661762
0.84167189
0.82805337
0.81646547
0.80755189
0.80183995
0.80131679
0.80582564
0.81245256
0.82047566
0.82924916
0.83825295
0.8471003
0.85552403
0.86335495
0.87049941
0.87691965
0.88261757
0.88762229
0.89198068
0.89575055
0.89899556
0.90178154
0.90417363
0.90623402
0.90801996
0.90958204
0.91096275
0.91219522
0.91330254
0.91429749
0.91518308
0.91595346
0.91659559
0.91709116
0.91741895
0.91755781
0.91755757
0.91722108
0.9164997
0.91540345
0.9139559
0.91219364
0.91016494
0.90792789
0.90554803
0.90309585
0.90064409
0.89826508
0.89602814
0.89399705
0.89222788
0.89076703
0.88964961
0.88889863
0.88866787
0.88905933
0.88967577
0.89048432
0.89145058
0.89253925
0.89371619
0.89494978
0.89621206
0.89747917
0.89873164
0.89995426
0.9011358
0.90226856
0.90334783
0.90437135
0.90533871
0.90625082
0.90710935
0.90791635
0.9086738
0.90938334
0.91004606
0.91066237
0.91123193
0.9117537
0.91222604
0.91264684
0.91301375
0.91332438
0.91357655
0.91376853
0.9138993
0.91396874
0.91395964
0.91384048
0.91362691
0.91332723
0.91295163
0.91251195
0.91202146
0.9114945
0.9109461
0.91039165
0.90984646
0.90932536
0.9088424
0.90841047
0.90804107
0.90774405
0.90752746
0.90739743
0.90740033
0.90749951
0.90765501
0.90786484
0.908126
0.90843462
0.90878613
0.90917541
0.909597
0.91004518
0.91051417
0.91099817
0.91149154
0.91198879
0.9124847
0.91297435
0.91345313
0.91391678
0.91436143
0.91478357
0.91518007
0.9155482
0.91588566
0.91619053
0.91646132
0.91669701
0.91689697
0.91706108
0.91718965
0.91728348
0.91734385
0.9173725
0.91735577
0.91729609
0.91719803
0.91706381
1.7556242e-05
1.7940876e-05
1.8442647e-05
1.8958302e-05
1.942068e-05
1.9801228e-05
2.0123965e-05
2.0464191e-05
2.094607e-05
2.171699e-05
2.2956227e-05
2.4879064e-05
2.775877e-05
3.1957499e-05
3.7970564e-05
4.6516541e-05
6.1266484e-05
8.014065e-05
0.00010468132
0.00013965351
0.00017716585
0.0025866795
0.021967602
0.064040963
0.12696689
0.20426374
0.28838481
0.37286834
0.4531284
0.52642586
0.59149055
0.64807519
0.69656853
0.73770541
0.77236918
0.80146741
0.82585974
0.84631972
0.8635174
0.8780131
0.89025684
0.90059043
0.90925158
0.9163802
0.92202743
0.92616652
0.92870426
0.92950179
0.92725274
0.92205628
0.91387971
0.90285475
0.8892518
0.8734433
0.85587306
0.83703861
0.81748512
0.79780558
0.77864048
0.76066936
0.74458754
0.73106987
0.72072672
0.71404756
0.71279592
0.71782877
0.72561077
0.73529335
0.74608986
0.75734728
0.76856553
0.77938779
0.7895785
0.79899847
0.80758174
0.815316
0.8222268
0.82836521
0.83379829
0.83860173
0.84285402
0.8466318
0.85000605
0.853039
0.85578167
0.85827224
0.86053512
0.86258104
0.86440797
0.86600288
0.86734413
0.86840428
0.86915329
0.86956215
0.86960701
0.8691927
0.86821415
0.86669361
0.8646709
0.86220149
0.85935389
0.85620668
0.85284545
0.84935986
0.84584088
0.84237827
0.83905819
0.83596097
0.83315907
0.8307152
0.82868056
0.82709376
0.82597973
0.82534903
0.82555554
0.82624298
0.8272199
0.82844157