/*--------------------------------*- C++ -*----------------------------------*\
| =========                 |                                                 |
| \\      /  F ield         | OpenFOAM: The Open Source CFD Toolbox           |
|  \\    /   O peration     | Version:  2406                                  |
|   \\  /    A nd           | Website:  www.openfoam.com                      |
|    \\/     M anipulation  |                                                 |
\*---------------------------------------------------------------------------*/
FoamFile
{
    version     2.0;
    format      ascii;
    arch        "LSB;label=32;scalar=64";
    class       volVectorField;
    location    "2500";
    object      U;
}
// * * * * * * * * * * * * * * * * * * * * * * * * * * * * * * * * * * * * * //

dimensions      [0 1 -1 0 0 0 0];

internalField   nonuniform List<vector> 
8600
(
(0.0087261123 -0.0032239116 0)
(0.012402791 -0.0022600414 0)
(0.023240264 -0.000709887 0)
(0.026930915 -3.2413108e-06 0)
(0.026052547 0.00016246392 0)
(0.024101515 0.00015623194 0)
(0.022128237 0.00012694682 0)
(0.020309211 0.00010230236 0)
(0.018687603 8.2683906e-05 0)
(0.017259583 6.8315677e-05 0)
(0.015992934 5.8498236e-05 0)
(0.014852584 5.1560188e-05 0)
(0.013811481 4.6227916e-05 0)
(0.012850205 4.18993e-05 0)
(0.011954442 3.8328094e-05 0)
(0.011113411 3.5391671e-05 0)
(0.010319073 3.2997152e-05 0)
(0.0095656937 3.1049562e-05 0)
(0.0088495099 2.9444799e-05 0)
(0.0081683932 2.8077661e-05 0)
(0.0075214462 2.6854003e-05 0)
(0.0069085463 2.5702112e-05 0)
(0.0063298844 2.4579632e-05 0)
(0.0057855537 2.3476266e-05 0)
(0.0052752387 2.2411091e-05 0)
(0.0047980384 2.1426069e-05 0)
(0.0043524415 2.0575624e-05 0)
(0.0039364522 1.9914087e-05 0)
(0.0035478467 1.9481745e-05 0)
(0.003184526 1.9291817e-05 0)
(0.0028449115 1.931943e-05 0)
(0.0025283239 1.9495662e-05 0)
(0.0022352745 1.9709466e-05 0)
(0.0019676083 1.9820354e-05 0)
(0.0017284434 1.9677834e-05 0)
(0.0015218718 1.9144444e-05 0)
(0.0013524535 1.8123799e-05 0)
(0.0012247351 1.6566578e-05 0)
(0.0011431275 1.4402767e-05 0)
(0.0011118965 1.152095e-05 0)
(0.0011347983 7.8671214e-06 0)
(0.0012139147 3.5360866e-06 0)
(0.0013487382 -1.248253e-06 0)
(0.0015357139 -6.1843043e-06 0)
(0.0017682705 -1.0941552e-05 0)
(0.0020372729 -1.5207773e-05 0)
(0.0023317843 -1.8729981e-05 0)
(0.0026400008 -2.1340724e-05 0)
(0.0029502103 -2.296903e-05 0)
(0.0032516348 -2.3634165e-05 0)
(0.0035350601 -2.342719e-05 0)
(0.0037932106 -2.2486465e-05 0)
(0.0040208845 -2.0974669e-05 0)
(0.0042148868 -1.9060798e-05 0)
(0.0043738151 -1.6908674e-05 0)
(0.0044977419 -1.4666271e-05 0)
(0.0045878228 -1.2452719e-05 0)
(0.0046458717 -1.0346251e-05 0)
(0.004673962 -8.3821665e-06 0)
(0.0046741064 -6.5516251e-06 0)
(0.0046481035 -4.8257383e-06 0)
(0.0045974926 -3.1601742e-06 0)
(0.0045235796 -1.5029701e-06 0)
(0.0044275452 1.9551247e-07 0)
(0.0043106173 1.9726143e-06 0)
(0.0041742789 3.8457478e-06 0)
(0.0040204807 5.8068221e-06 0)
(0.0038518288 7.8195558e-06 0)
(0.0036717189 9.8191822e-06 0)
(0.0034843976 1.1715342e-05 0)
(0.003294933 1.3397202e-05 0)
(0.0031090838 1.4742657e-05 0)
(0.0029330644 1.5629143e-05 0)
(0.0027732149 1.5946263e-05 0)
(0.002635589 1.5607772e-05 0)
(0.0025254749 1.457271e-05 0)
(0.0024468918 1.2872641e-05 0)
(0.0024021752 1.0613901e-05 0)
(0.0023917534 7.9529431e-06 0)
(0.0024141502 5.0723235e-06 0)
(0.0024661677 2.1732127e-06 0)
(0.0025432314 -5.5577537e-07 0)
(0.0026398617 -2.9621653e-06 0)
(0.0027501843 -4.9413167e-06 0)
(0.0028684027 -6.4396781e-06 0)
(0.0029891808 -7.4498423e-06 0)
(0.0031079139 -8.0018028e-06 0)
(0.0032208824 -8.1517173e-06 0)
(0.0033253033 -7.9714591e-06 0)
(0.0034192979 -7.5387798e-06 0)
(0.0035018004 -6.9303628e-06 0)
(0.0035724302 -6.2157717e-06 0)
(0.0036313456 -5.4547392e-06 0)
(0.0036790961 -4.6942395e-06 0)
(0.0037164857 -3.9689917e-06 0)
(0.0037444564 -3.3022748e-06 0)
(0.0037639969 -2.7090597e-06 0)
(0.0037760697 -2.1963998e-06 0)
(0.0037815519 -1.7634561e-06 0)
(0.0037811889 -1.4013076e-06 0)
(0.0037755788 -1.0972418e-06 0)
(0.0037651714 -8.3569966e-07 0)
(0.0037502835 -6.0048966e-07 0)
(0.0037311254 -3.7550951e-07 0)
(0.0037078357 -1.4673571e-07 0)
(0.0036805208 9.7508669e-08 0)
(0.003649296 3.6489215e-07 0)
(0.0036143238 6.5920592e-07 0)
(0.0035758483 9.7953461e-07 0)
(0.0035342215 1.3209589e-06 0)
(0.0034899197 1.6744078e-06 0)
(0.00344355 2.0277416e-06 0)
(0.0033958438 2.3662775e-06 0)
(0.0033476397 2.6741571e-06 0)
(0.0032998557 2.9353517e-06 0)
(0.0032534531 3.1352043e-06 0)
(0.0032093941 3.2611496e-06 0)
(0.0031685961 3.3043948e-06 0)
(0.0031318872 3.2599672e-06 0)
(0.003099965 3.1279605e-06 0)
(0.003073362 2.9127329e-06 0)
(0.0030524201 2.6234781e-06 0)
(0.0030372771 2.272954e-06 0)
(0.0030278641 1.8776535e-06 0)
(0.0030239164 1.455655e-06 0)
(0.0030249939 1.0254443e-06 0)
(0.0030305148 6.0449338e-07 0)
(0.0030397909 2.0880842e-07 0)
(0.0030520666 -1.4857188e-07 0)
(0.0030665586 -4.5756802e-07 0)
(0.0030824926 -7.1177878e-07 0)
(0.003099134 -9.0796141e-07 0)
(0.0031158139 -1.0461061e-06 0)
(0.0031319467 -1.1286866e-06 0)
(0.003147042 -1.1603264e-06 0)
(0.0031607094 -1.1469535e-06 0)
(0.0031726584 -1.0956531e-06 0)
(0.0031826941 -1.0136008e-06 0)
(0.0031907097 -9.0839578e-07 0)
(0.0031966771 -7.8703536e-07 0)
(0.0032006357 -6.5653747e-07 0)
(0.0032026802 -5.2286269e-07 0)
(0.0032029466 -3.912504e-07 0)
(0.0032016002 -2.6562486e-07 0)
(0.0031988255 -1.4926593e-07 0)
(0.0031948159 -4.4143661e-08 0)
(0.0031897661 4.8275651e-08 0)
(0.0031838652 1.2754686e-07 0)
(0.0031772918 1.9348215e-07 0)
(0.0031702108 2.4687918e-07 0)
(0.0031627706 2.8838943e-07 0)
(0.0031551029 3.1963443e-07 0)
(0.0031473224 3.416314e-07 0)
(0.0031395273 3.5617563e-07 0)
(0.003131801 3.6425387e-07 0)
(0.0031242134 3.6745237e-07 0)
(0.0031168228 3.6651067e-07 0)
(0.0031096772 3.6258996e-07 0)
(0.0031028162 3.5613495e-07 0)
(0.0030962714 3.4784486e-07 0)
(0.0030900681 3.3792443e-07 0)
(0.0030842252 3.2667919e-07 0)
(0.0030787554 3.1407344e-07 0)
(0.0030736653 3.0031184e-07 0)
(0.0030689552 2.8533967e-07 0)
(0.0030646188 2.6946957e-07 0)
(0.003060643 2.5278556e-07 0)
(0.0030570077 2.3566178e-07 0)
(0.0030536859 2.1824513e-07 0)
(0.003050644 2.0111812e-07 0)
(0.0030478426 1.8450954e-07 0)
(0.0030452375 1.6921623e-07 0)
(0.0030427806 1.5551512e-07 0)
(0.0030404215 1.4415023e-07 0)
(0.0030381093 1.3537416e-07 0)
(0.0030357939 1.2973057e-07 0)
(0.0030334284 1.2735848e-07 0)
(0.0030309701 1.2847693e-07 0)
(0.0030283827 1.3292902e-07 0)
(0.0030256371 1.4066137e-07 0)
(0.0030227131 1.5124255e-07 0)
(0.0030195998 1.6441693e-07 0)
(0.003016296 1.7954508e-07 0)
(0.0030128108 1.960677e-07 0)
(0.0030091625 2.1313493e-07 0)
(0.0030053784 2.3006247e-07 0)
(0.003001494 2.4597651e-07 0)
(0.0029975514 2.6020022e-07 0)
(0.0029935979 2.7195449e-07 0)
(0.0029896847 2.8055784e-07 0)
(0.0029858645 2.85391e-07 0)
(0.0029821904 2.8591244e-07 0)
(0.0029787139 2.8167775e-07 0)
(0.0029754832 2.7230552e-07 0)
(0.0029725425 2.5733138e-07 0)
(0.0029699278 2.3675417e-07 0)
(0.002967684 2.0685623e-07 0)
(0.0029657558 1.7671643e-07 0)
(0.0029645394 9.603656e-08 0)
(0.0029624986 2.4394685e-07 0)
(0.055580271 -0.014145537 0)
(0.062065683 -0.010263836 0)
(0.070517331 -0.0041281243 0)
(0.074175686 -0.00037926665 0)
(0.071944105 0.0012075755 0)
(0.067504956 0.0015687589 0)
(0.062819678 0.0014990835 0)
(0.058369535 0.0013452879 0)
(0.054269877 0.0011929051 0)
(0.050543653 0.0010618255 0)
(0.047155846 0.00095685857 0)
(0.044051919 0.00087421284 0)
(0.041182167 0.00080792452 0)
(0.038506369 0.00075350668 0)
(0.035992118 0.00070800895 0)
(0.033613524 0.00066926165 0)
(0.031350697 0.00063544343 0)
(0.029189428 0.0006049552 0)
(0.027120753 0.00057641893 0)
(0.025140265 0.00054873848 0)
(0.023247148 0.00052115635 0)
(0.021442989 0.00049328536 0)
(0.019730519 0.0004650872 0)
(0.018112434 0.00043681325 0)
(0.016590456 0.00040890442 0)
(0.015164721 0.00038187659 0)
(0.013833585 0.00035619583 0)
(0.012593815 0.00033216833 0)
(0.011441154 0.00030984851 0)
(0.01037115 0.00028898831 0)
(0.0093801295 0.00026902711 0)
(0.0084661608 0.0002491381 0)
(0.0076298266 0.00022832223 0)
(0.0068746564 0.00020555283 0)
(0.0062070921 0.00017994839 0)
(0.005635935 0.00015093312 0)
(0.0051712743 0.00011830734 0)
(0.0048231953 8.2181596e-05 0)
(0.0046010909 4.2775186e-05 0)
(0.0045133011 4.0927394e-07 0)
(0.0045672828 -4.4068094e-05 0)
(0.0047666278 -8.8951547e-05 0)
(0.0051089808 -0.00013197287 0)
(0.005584869 -0.00017072682 0)
(0.0061776196 -0.00020302311 0)
(0.0068643104 -0.00022716629 0)
(0.0076174849 -0.00024214244 0)
(0.0084073287 -0.0002476905 0)
(0.0092039661 -0.00024426202 0)
(0.0099795489 -0.00023288721 0)
(0.010709888 -0.00021498878 0)
(0.011375492 -0.00019218248 0)
(0.011962014 -0.00016610039 0)
(0.012460186 -0.00013824985 0)
(0.012865375 -0.0001099175 0)
(0.013176883 -8.2108524e-05 0)
(0.013397069 -5.5510997e-05 0)
(0.013530362 -3.0489927e-05 0)
(0.013582321 -7.1407427e-06 0)
(0.01355861 1.4649578e-05 0)
(0.013464629 3.5062111e-05 0)
(0.013305309 5.4279312e-05 0)
(0.013085085 7.2431073e-05 0)
(0.012808095 8.9535855e-05 0)
(0.012478546 0.00010546123 0)
(0.012101185 0.00011991032 0)
(0.01168179 0.00013243123 0)
(0.011227607 0.0001424501 0)
(0.010747668 0.00014932185 0)
(0.010252928 0.00015239665 0)
(0.0097561891 0.00015109562 0)
(0.0092717845 0.00014499274 0)
(0.0088150181 0.00013389321 0)
(0.0084013889 0.00011790442 0)
(0.0080456548 9.7484773e-05 0)
(0.0077607777 7.3464101e-05 0)
(0.007556782 4.7021587e-05 0)
(0.0074397023 1.9594448e-05 0)
(0.007410934 -7.2798052e-06 0)
(0.0074671948 -3.2174746e-05 0)
(0.0076008081 -5.3875315e-05 0)
(0.0078005451 -7.1491605e-05 0)
(0.0080527112 -8.4527918e-05 0)
(0.0083423905 -9.2878398e-05 0)
(0.0086546355 -9.6776141e-05 0)
(0.008975469 -9.6710673e-05 0)
(0.0092926208 -9.3337536e-05 0)
(0.0095959829 -8.7389793e-05 0)
(0.0098777999 -7.9605096e-05 0)
(0.01013264 -7.0668806e-05 0)
(0.010357207 -6.1177223e-05 0)
(0.010550037 -5.1615636e-05 0)
(0.01071115 -4.235245e-05 0)
(0.010841675 -3.364208e-05 0)
(0.010943496 -2.5638536e-05 0)
(0.011018939 -1.8411618e-05 0)
(0.011070523 -1.1966252e-05 0)
(0.011100768 -6.2559841e-06 0)
(0.011112045 -1.1964343e-06 0)
(0.011106435 3.3233796e-06 0)
(0.011085687 7.4200212e-06 0)
(0.0110512 1.1203482e-05 0)
(0.011004049 1.4766226e-05 0)
(0.010945043 1.8176418e-05 0)
(0.010874806 2.1472038e-05 0)
(0.01079387 2.465993e-05 0)
(0.010702771 2.7715032e-05 0)
(0.010602147 3.0584424e-05 0)
(0.010492814 3.3191503e-05 0)
(0.010375834 3.5444048e-05 0)
(0.010252556 3.7241477e-05 0)
(0.010124629 3.8484908e-05 0)
(0.0099939872 3.9085166e-05 0)
(0.0098628101 3.8972298e-05 0)
(0.009733455 3.8102121e-05 0)
(0.0096083688 3.6462466e-05 0)
(0.009489986 3.4075693e-05 0)
(0.0093806178 3.1000451e-05 0)
(0.0092823433 2.7328597e-05 0)
(0.0091969082 2.3182269e-05 0)
(0.0091256407 1.8705789e-05 0)
(0.0090693882 1.4058673e-05 0)
(0.0090284822 9.4047224e-06 0)
(0.0090027311 4.9040236e-06 0)
(0.0089914442 7.0408835e-07 0)
(0.008993475 -3.0700668e-06 0)
(0.0090073088 -6.3221922e-06 0)
(0.0090311507 -8.9856297e-06 0)
(0.0090630244 -1.1025726e-05 0)
(0.0091008727 -1.243742e-05 0)
(0.0091426516 -1.3243134e-05 0)
(0.0091864139 -1.3486834e-05 0)
(0.0092303754 -1.3230137e-05 0)
(0.0092729655 -1.254563e-05 0)
(0.0093128595 -1.1512657e-05 0)
(0.0093489943 -1.0211869e-05 0)
(0.0093805706 -8.7222739e-06 0)
(0.0094070425 -7.1172176e-06 0)
(0.0094280991 -5.4636591e-06 0)
(0.0094436407 -3.8191272e-06 0)
(0.00945375 -2.2325068e-06 0)
(0.0094586616 -7.4184255e-07 0)
(0.0094587253 6.2451537e-07 0)
(0.0094543739 1.8480177e-06 0)
(0.0094460964 2.9175359e-06 0)
(0.0094344109 3.8298341e-06 0)
(0.0094198425 4.5867554e-06 0)
(0.0094029051 5.1952017e-06 0)
(0.0093840878 5.664725e-06 0)
(0.0093638447 6.0077967e-06 0)
(0.0093425884 6.2372953e-06 0)
(0.0093206866 6.3675115e-06 0)
(0.0092984618 6.4113085e-06 0)
(0.0092761924 6.3818068e-06 0)
(0.0092541153 6.2898922e-06 0)
(0.0092324298 6.1462411e-06 0)
(0.0092113021 5.9592038e-06 0)
(0.0091908688 5.7368926e-06 0)
(0.0091712407 5.485554e-06 0)
(0.0091525064 5.211508e-06 0)
(0.0091347339 4.9199513e-06 0)
(0.0091179728 4.6162723e-06 0)
(0.0091022546 4.3052876e-06 0)
(0.0090875933 3.9924093e-06 0)
(0.0090739851 3.6826968e-06 0)
(0.0090614081 3.3820936e-06 0)
(0.0090498225 3.0960544e-06 0)
(0.00903917 2.8303959e-06 0)
(0.0090293747 2.590184e-06 0)
(0.0090203441 2.3805772e-06 0)
(0.0090119709 2.2054587e-06 0)
(0.0090041358 2.0686121e-06 0)
(0.0089967107 1.9719327e-06 0)
(0.0089895621 1.9167508e-06 0)
(0.0089825555 1.9023673e-06 0)
(0.0089755602 1.9272585e-06 0)
(0.0089684532 1.9880624e-06 0)
(0.0089611243 2.0804002e-06 0)
(0.0089534795 2.1983927e-06 0)
(0.0089454446 2.335494e-06 0)
(0.0089369682 2.4841272e-06 0)
(0.0089280234 2.6367302e-06 0)
(0.0089186094 2.7852301e-06 0)
(0.0089087506 2.9219041e-06 0)
(0.0088984963 3.0391665e-06 0)
(0.0088879189 3.1303763e-06 0)
(0.0088771113 3.1895783e-06 0)
(0.0088661833 3.2122924e-06 0)
(0.0088552583 3.1950282e-06 0)
(0.0088444682 3.135821e-06 0)
(0.0088339494 3.0339898e-06 0)
(0.008823838 2.8903643e-06 0)
(0.008814265 2.7070865e-06 0)
(0.0088053523 2.487604e-06 0)
(0.0087972096 2.2363436e-06 0)
(0.0087899256 1.9586439e-06 0)
(0.0087835911 1.6612983e-06 0)
(0.0087781323 1.3436749e-06 0)
(0.0087742352 1.0743411e-06 0)
(0.008768796 1.3177508e-06 0)
(0.18133875 -0.0098033029 0)
(0.16214916 -0.010401945 0)
(0.15169907 -0.004126458 0)
(0.14585306 0.0011181346 0)
(0.13976229 0.0042540363 0)
(0.13288622 0.0056473702 0)
(0.12577968 0.005909345 0)
(0.11872234 0.0056163572 0)
(0.11186049 0.0051324088 0)
(0.10530961 0.0046321922 0)
(0.099125954 0.0041848627 0)
(0.09330935 0.0038088071 0)
(0.087829869 0.0035002183 0)
(0.082646618 0.0032482156 0)
(0.077717005 0.0030413476 0)
(0.073002128 0.0028692573 0)
(0.068470225 0.0027227311 0)
(0.064098484 0.0025936262 0)
(0.059873506 0.0024749656 0)
(0.055790727 0.0023611399 0)
(0.051852988 0.0022481044 0)
(0.048068471 0.0021334767 0)
(0.04444831 0.0020164716 0)
(0.041004191 0.0018976664 0)
(0.037746287 0.0017786182 0)
(0.034681761 0.0016613909 0)
(0.03181401 0.0015480484 0)
(0.029142693 0.0014401772 0)
(0.026664477 0.0013384934 0)
(0.024374359 0.0012425841 0)
(0.02226733 0.0011508222 0)
(0.020340105 0.001060481 0)
(0.018592617 0.00096805326 0)
(0.017028988 0.00086974773 0)
(0.01565778 0.00076209805 0)
(0.014491439 0.00064254073 0)
(0.013544836 0.00050982836 0)
(0.012832997 0.00036422164 0)
(0.012369502 0.00020698851 0)
(0.01216631 3.9544794e-05 0)
(0.012232381 -0.00013572047 0)
(0.012570398 -0.00031348171 0)
(0.013173671 -0.00048575267 0)
(0.014023804 -0.00064349029 0)
(0.015090228 -0.00077800818 0)
(0.016331595 -0.00088214931 0)
(0.017698526 -0.00095113945 0)
(0.019137199 -0.00098302862 0)
(0.020593239 -0.00097869508 0)
(0.022015345 -0.0009414623 0)
(0.023358225 -0.00087644419 0)
(0.024584568 -0.00078977384 0)
(0.02566602 -0.00068787146 0)
(0.026583271 -0.00057684639 0)
(0.027325487 -0.00046208231 0)
(0.0278893 -0.00034799636 0)
(0.028277476 -0.00023789857 0)
(0.02849726 -0.00013393764 0)
(0.028558764 -3.7070188e-05 0)
(0.028472897 5.2937121e-05 0)
(0.028251108 0.00013657491 0)
(0.027904245 0.00021449714 0)
(0.027442429 0.00028727451 0)
(0.026875245 0.00035514661 0)
(0.026212274 0.00041784353 0)
(0.025463833 0.00047449743 0)
(0.024641794 0.0005236486 0)
(0.023760325 0.00056334243 0)
(0.022836438 0.00059130368 0)
(0.021890236 0.00060517131 0)
(0.02094479 0.00060277427 0)
(0.020025619 0.00058242724 0)
(0.019159773 0.00054322199 0)
(0.018374563 0.00048528264 0)
(0.017696066 0.00040993732 0)
(0.017147494 0.00031979055 0)
(0.01674737 0.00021875749 0)
(0.016507657 0.00011197203 0)
(0.01643231 5.2444767e-06 0)
(0.016517166 -9.5907124e-05 0)
(0.016749435 -0.00018644876 0)
(0.017109601 -0.00026236917 0)
(0.017573176 -0.00032106321 0)
(0.018112907 -0.00036144088 0)
(0.01870096 -0.0003838192 0)
(0.019310828 -0.00038966307 0)
(0.019918792 -0.0003812505 0)
(0.020504878 -0.00036132518 0)
(0.021053344 -0.00033278393 0)
(0.021552737 -0.00029842463 0)
(0.021995639 -0.00026076494 0)
(0.022378187 -0.00022192929 0)
(0.022699461 -0.00018359602 0)
(0.022960827 -0.00014699125 0)
(0.023165267 -0.00011291822 0)
(0.023316789 -8.1813441e-05 0)
(0.023419927 -5.3824184e-05 0)
(0.023479367 -2.8884273e-05 0)
(0.023499663 -6.767024e-06 0)
(0.023484962 1.2902612e-05 0)
(0.023438905 3.0557065e-05 0)
(0.023364533 4.6625862e-05 0)
(0.023264317 6.1491297e-05 0)
(0.023140244 7.5454628e-05 0)
(0.022993945 8.8713052e-05 0)
(0.022826854 0.00010134763 0)
(0.022640372 0.00011332084 0)
(0.022436033 0.00012448451 0)
(0.022215647 0.00013459611 0)
(0.021981419 0.0001433429 0)
(0.021736024 0.00015037126 0)
(0.021482636 0.00015531997 0)
(0.021224911 0.00015785395 0)
(0.020966915 0.00015769754 0)
(0.020713019 0.00015466351 0)
(0.020467738 0.00014867632 0)
(0.020235564 0.00013978744 0)
(0.020020764 0.00012818187 0)
(0.019827191 0.00011417473 0)
(0.019658105 9.8198315e-05 0)
(0.019516012 8.0779954e-05 0)
(0.019402552 6.2514026e-05 0)
(0.019318426 4.4027138e-05 0)
(0.019263371 2.5943716e-05 0)
(0.019236185 8.856035e-06 0)
(0.019234832 -6.7204638e-06 0)
(0.01925654 -2.0369523e-05 0)
(0.019297975 -3.1784707e-05 0)
(0.019355429 -4.0779994e-05 0)
(0.019425002 -4.7289058e-05 0)
(0.019502785 -5.1356267e-05 0)
(0.019585019 -5.3120841e-05 0)
(0.01966823 -5.2797958e-05 0)
(0.019749329 -5.0657309e-05 0)
(0.01982568 -4.7002543e-05 0)
(0.019895141 -4.2152013e-05 0)
(0.019956072 -3.6422352e-05 0)
(0.020007323 -3.0115073e-05 0)
(0.020048199 -2.3506908e-05 0)
(0.020078421 -1.6842925e-05 0)
(0.020098068 -1.033337e-05 0)
(0.020107529 -4.1508897e-06 0)
(0.020107429 1.5734193e-06 0)
(0.020098574 6.7482594e-06 0)
(0.02008189 1.131622e-05 0)
(0.020058371 1.5250108e-05 0)
(0.020029034 1.8547782e-05 0)
(0.019994886 2.1227509e-05 0)
(0.019956889 2.3323092e-05 0)
(0.019915946 2.4879446e-05 0)
(0.019872881 2.5948385e-05 0)
(0.019828434 2.6585212e-05 0)
(0.019783255 2.6845279e-05 0)
(0.01973791 2.6782081e-05 0)
(0.01969288 2.644519e-05 0)
(0.019648572 2.5879796e-05 0)
(0.019605325 2.5125812e-05 0)
(0.019563416 2.421852e-05 0)
(0.019523069 2.3188592e-05 0)
(0.019484462 2.2063391e-05 0)
(0.019447731 2.0867406e-05 0)
(0.019412974 1.9623356e-05 0)
(0.019380252 1.8352834e-05 0)
(0.019349591 1.7077142e-05 0)
(0.019320985 1.5817589e-05 0)
(0.019294392 1.4595939e-05 0)
(0.019269736 1.3433861e-05 0)
(0.019246907 1.2352672e-05 0)
(0.019225762 1.1372654e-05 0)
(0.019206128 1.0512453e-05 0)
(0.019187805 9.7882104e-06 0)
(0.019170569 9.212991e-06 0)
(0.019154181 8.7955943e-06 0)
(0.019138393 8.5403013e-06 0)
(0.019122952 8.4460435e-06 0)
(0.019107614 8.5065862e-06 0)
(0.019092147 8.7102007e-06 0)
(0.019076346 9.0400774e-06 0)
(0.019060032 9.4746987e-06 0)
(0.019043064 9.9886829e-06 0)
(0.019025345 1.0553647e-05 0)
(0.01900682 1.1139444e-05 0)
(0.018987486 1.1714965e-05 0)
(0.018967384 1.2249372e-05 0)
(0.018946604 1.2713111e-05 0)
(0.018925278 1.3079132e-05 0)
(0.018903577 1.3323771e-05 0)
(0.018881703 1.3427744e-05 0)
(0.018859883 1.3376478e-05 0)
(0.018838362 1.3160727e-05 0)
(0.018817391 1.2776691e-05 0)
(0.018797223 1.2226178e-05 0)
(0.018778098 1.1516393e-05 0)
(0.018760241 1.0659602e-05 0)
(0.018743852 9.6725787e-06 0)
(0.018729093 8.5762747e-06 0)
(0.018716099 7.3973312e-06 0)
(0.018704828 6.174698e-06 0)
(0.018696173 5.1060833e-06 0)
(0.018685403 5.1707297e-06 0)
(0.19020476 -0.00071162154 0)
(0.18722004 0.0029029912 0)
(0.18393 0.0074247288 0)
(0.18147719 0.010302166 0)
(0.17910089 0.011868427 0)
(0.17619267 0.012671629 0)
(0.17264531 0.012912918 0)
(0.16847831 0.012743945 0)
(0.16376132 0.012324438 0)
(0.1586188 0.011778536 0)
(0.15318221 0.011190425 0)
(0.14755331 0.010615447 0)
(0.14179953 0.010086586 0)
(0.13596127 0.0096190844 0)
(0.13005999 0.0092151765 0)
(0.124106 0.0088681428 0)
(0.1181059 0.0085654907 0)
(0.1120686 0.0082916485 0)
(0.10600957 0.0080303741 0)
(0.09995305 0.0077668399 0)
(0.093932299 0.0074892823 0)
(0.08798813 0.0071900782 0)
(0.082166123 0.0068661588 0)
(0.076513135 0.0065187418 0)
(0.071073779 0.006152476 0)
(0.065887463 0.0057741674 0)
(0.060986412 0.0053913029 0)
(0.056394866 0.0050105886 0)
(0.052129452 0.0046366998 0)
(0.048200502 0.0042714065 0)
(0.044614022 0.0039131968 0)
(0.041373888 0.0035574704 0)
(0.038483853 0.0031972982 0)
(0.035949011 0.0028246692 0)
(0.033776438 0.0024320218 0)
(0.031974938 0.0020137416 0)
(0.030553779 0.0015673619 0)
(0.029520335 0.0010942919 0)
(0.028878615 0.00059895593 0)
(0.028629979 8.6375709e-05 0)
(0.028770409 -0.00043519279 0)
(0.029285105 -0.00095049932 0)
(0.030147781 -0.0014387409 0)
(0.031319481 -0.0018770412 0)
(0.032749169 -0.0022439079 0)
(0.034376101 -0.0025220666 0)
(0.036133217 -0.0027004462 0)
(0.037951074 -0.0027751363 0)
(0.039761823 -0.0027493017 0)
(0.041502761 -0.0026322034 0)
(0.043119113 -0.0024375878 0)
(0.044565848 -0.0021818122 0)
(0.045808526 -0.0018820696 0)
(0.046823337 -0.001554925 0)
(0.047596523 -0.0012152925 0)
(0.048123435 -0.00087585902 0)
(0.048407257 -0.00054664507 0)
(0.048457534 -0.00023445134 0)
(0.048287318 5.7634015e-05 0)
(0.047912874 0.00032825603 0)
(0.04735206 0.00057768465 0)
(0.046622801 0.00080705328 0)
(0.04574268 0.001017498 0)
(0.044729009 0.0012094277 0)
(0.043599337 0.0013820045 0)
(0.042372258 0.0015328822 0)
(0.041068291 0.0016582218 0)
(0.039710654 0.0017529683 0)
(0.038325744 0.001811348 0)
(0.036943207 0.0018275249 0)
(0.035595518 0.0017963497 0)
(0.034317078 0.0017141315 0)
(0.033142848 0.0015793645 0)
(0.03210664 0.0013933249 0)
(0.031239241 0.0011604339 0)
(0.030566585 0.00088837681 0)
(0.030107846 0.00058817291 0)
(0.029873382 0.00027396276 0)
(0.029863646 -3.8408478e-05 0)
(0.03006848 -0.00033275964 0)
(0.030466371 -0.00059476597 0)
(0.031027972 -0.00081331358 0)
(0.031718601 -0.00098135894 0)
(0.032501145 -0.001096126 0)
(0.033338714 -0.0011587407 0)
(0.034196827 -0.0011734854 0)
(0.035045003 -0.001146868 0)
(0.035857756 -0.0010866739 0)
(0.036615039 -0.0010011164 0)
(0.037302223 -0.00089815139 0)
(0.037909743 -0.00078497816 0)
(0.038432486 -0.00066772332 0)
(0.038869049 -0.00055128266 0)
(0.039220925 -0.00043929142 0)
(0.039491702 -0.00033419209 0)
(0.039686313 -0.00023738421 0)
(0.039810432 -0.00014943822 0)
(0.039870014 -7.0311206e-05 0)
(0.039870944 5.336129e-07 0)
(0.039818665 6.3991418e-05 0)
(0.03971819 0.00012115012 0)
(0.03957392 0.00017311551 0)
(0.03938968 0.00022087929 0)
(0.039168815 0.00026522068 0)
(0.038914342 0.00030664063 0)
(0.038629139 0.00034532685 0)
(0.038316134 0.00038114911 0)
(0.037978491 0.0004136823 0)
(0.037619771 0.0004422547 0)
(0.037244041 0.00046601641 0)
(0.036855945 0.00048402347 0)
(0.036460697 0.00049533018 0)
(0.036064029 0.00049908418 0)
(0.035672065 0.00049461628 0)
(0.035291154 0.00048151927 0)
(0.034927653 0.00045970844 0)
(0.034587689 0.00042946032 0)
(0.034276905 0.00039142574 0)
(0.034000219 0.00034661654 0)
(0.033761606 0.00029636425 0)
(0.03356392 0.00024225689 0)
(0.033408766 0.00018605831 0)
(0.033296442 0.00012961315 0)
(0.033225936 7.4743616e-05 0)
(0.033194983 2.3160691e-05 0)
(0.033200229 -2.3631141e-05 0)
(0.033237343 -6.4417742e-05 0)
(0.033301294 -9.8324167e-05 0)
(0.03338662 -0.00012483616 0)
(0.033487677 -0.0001437946 0)
(0.033598891 -0.00015536582 0)
(0.033714967 -0.00015999513 0)
(0.033831064 -0.00015834891 0)
(0.03394292 -0.00015125261 0)
(0.034046942 -0.00013962901 0)
(0.034140244 -0.00012444211 0)
(0.034220654 -0.00010664805 0)
(0.034286689 -8.715603e-05 0)
(0.034337504 -6.6798947e-05 0)
(0.034372826 -4.6314742e-05 0)
(0.03439288 -2.6334896e-05 0)
(0.03439831 -7.3762741e-06 0)
(0.034390073 1.0167679e-05 0)
(0.034369373 2.602047e-05 0)
(0.034337572 4.0009915e-05 0)
(0.034296119 5.2054605e-05 0)
(0.034246484 6.2149879e-05 0)
(0.034190114 7.0352734e-05 0)
(0.034128386 7.6767499e-05 0)
(0.034062581 8.1531556e-05 0)
(0.033993869 8.4803087e-05 0)
(0.033923294 8.6749731e-05 0)
(0.033851773 8.7539892e-05 0)
(0.033780099 8.7335513e-05 0)
(0.033708953 8.6287602e-05 0)
(0.033638904 8.4533155e-05 0)
(0.033570429 8.219436e-05 0)
(0.033503921 7.9378826e-05 0)
(0.033439698 7.6181309e-05 0)
(0.03337801 7.2685822e-05 0)
(0.033319053 6.8968424e-05 0)
(0.033262965 6.5099608e-05 0)
(0.033209834 6.1146887e-05 0)
(0.033159699 5.7176408e-05 0)
(0.033112549 5.3254339e-05 0)
(0.033068326 4.9446978e-05 0)
(0.033026919 4.5820427e-05 0)
(0.032988174 4.2439114e-05 0)
(0.032951887 3.9364271e-05 0)
(0.032917816 3.6651482e-05 0)
(0.032885679 3.4348596e-05 0)
(0.032855165 3.2493068e-05 0)
(0.032825944 3.1109921e-05 0)
(0.032797672 3.0209789e-05 0)
(0.032770008 2.9787794e-05 0)
(0.032742622 2.9822884e-05 0)
(0.032715208 3.027808e-05 0)
(0.032687494 3.1101237e-05 0)
(0.032659255 3.2226794e-05 0)
(0.032630316 3.3577935e-05 0)
(0.032600565 3.5069535e-05 0)
(0.032569953 3.6611212e-05 0)
(0.032538497 3.8110752e-05 0)
(0.032506279 3.9477396e-05 0)
(0.032473443 4.062533e-05 0)
(0.032440189 4.1476756e-05 0)
(0.032406765 4.1964834e-05 0)
(0.03237346 4.2035946e-05 0)
(0.032340586 4.1651536e-05 0)
(0.032308475 4.0789269e-05 0)
(0.03227746 3.9443761e-05 0)
(0.032247863 3.7626554e-05 0)
(0.032219988 3.5365747e-05 0)
(0.032194101 3.2705045e-05 0)
(0.032170427 2.9702657e-05 0)
(0.032149132 2.6431377e-05 0)
(0.03213034 2.2978005e-05 0)
(0.032113932 1.9495301e-05 0)
(0.032101165 1.6229106e-05 0)
(0.032085816 1.4773254e-05 0)
(0.19044958 0.00086860712 0)
(0.18967655 0.0031150827 0)
(0.18892758 0.0060471872 0)
(0.18894461 0.0088907932 0)
(0.18931625 0.011226047 0)
(0.18942808 0.013001786 0)
(0.18903549 0.014229181 0)
(0.18807779 0.014973995 0)
(0.18653074 0.015351696 0)
(0.1844046 0.015478582 0)
(0.18173881 0.015449087 0)
(0.1785785 0.015336047 0)
(0.17496094 0.015192885 0)
(0.17091296 0.015054382 0)
(0.16645216 0.014938155 0)
(0.16159003 0.014846957 0)
(0.15633685 0.014771406 0)
(0.15070756 0.014693238 0)
(0.14472717 0.014589115 0)
(0.1384348 0.014434713 0)
(0.13188557 0.014208614 0)
(0.12514998 0.013895455 0)
(0.11831093 0.013487882 0)
(0.11145888 0.012987053 0)
(0.10468622 0.012401727 0)
(0.098081724 0.011746229 0)
(0.091725987 0.011037769 0)
(0.085688365 0.010293586 0)
(0.080025546 0.0095284104 0)
(0.074781644 0.0087525725 0)
(0.069989423 0.0079710295 0)
(0.065672182 0.0071834097 0)
(0.061845823 0.0063850544 0)
(0.058520661 0.0055688844 0)
(0.055702672 0.0047277686 0)
(0.053394129 0.0038568848 0)
(0.051593542 0.0029555702 0)
(0.050294373 0.0020284527 0)
(0.049484468 0.0010847279 0)
(0.04914943 0.00013474769 0)
(0.049266848 -0.00080470206 0)
(0.049800736 -0.0017069958 0)
(0.050705552 -0.0025394796 0)
(0.051925852 -0.0032679883 0)
(0.053397672 -0.0038616588 0)
(0.055050988 -0.0042967803 0)
(0.056812644 -0.0045593817 0)
(0.058609538 -0.0046463567 0)
(0.060371781 -0.0045651445 0)
(0.062035544 -0.0043321796 0)
(0.06354528 -0.0039704695 0)
(0.064855159 -0.0035068102 0)
(0.065929729 -0.0029691978 0)
(0.066743911 -0.002384723 0)
(0.067282516 -0.0017781156 0)
(0.067539727 -0.0011709585 0)
(0.067518638 -0.00058076912 0)
(0.067229253 -1.9540511e-05 0)
(0.066688065 0.00050458114 0)
(0.065917007 0.00098729434 0)
(0.064940269 0.0014276314 0)
(0.063782962 0.001826487 0)
(0.062470341 0.0021851019 0)
(0.061027602 0.0025037812 0)
(0.059480177 0.0027809835 0)
(0.057854328 0.0030128685 0)
(0.056177836 0.0031933368 0)
(0.054480544 0.0033145353 0)
(0.052794593 0.0033677404 0)
(0.051154212 0.0033444967 0)
(0.049595015 0.0032378706 0)
(0.048152857 0.0030436815 0)
(0.046862333 0.0027615883 0)
(0.045755053 0.0023959029 0)
(0.04485793 0.0019559667 0)
(0.04419181 0.001456062 0)
(0.043770217 0.00091525227 0)
(0.04359755 0.00035709775 0)
(0.0436691 -0.00019132289 0)
(0.04396818 -0.00070223796 0)
(0.044467502 -0.0011519007 0)
(0.045132907 -0.0015226421 0)
(0.045926108 -0.0018039142 0)
(0.04680756 -0.0019923059 0)
(0.047738912 -0.0020907339 0)
(0.048684898 -0.0021071117 0)
(0.049614645 -0.0020528027 0)
(0.050502429 -0.0019410971 0)
(0.051327969 -0.001785873 0)
(0.052076325 -0.0016005231 0)
(0.052737517 -0.0013971735 0)
(0.053305938 -0.0011861819 0)
(0.053779642 -0.00097588144 0)
(0.05415958 -0.00077252411 0)
(0.054448822 -0.00058038078 0)
(0.054651825 -0.00040197439 0)
(0.05477384 -0.00023842713 0)
(0.05482051 -8.9827372e-05 0)
(0.054797431 4.4512657e-05 0)
(0.054710041 0.00016582377 0)
(0.054563579 0.00027567261 0)
(0.054362898 0.00037568257 0)
(0.054112499 0.00046730808 0)
(0.053816622 0.00055166842 0)
(0.053479379 0.00062943798 0)
(0.053104925 0.00070079194 0)
(0.052697612 0.0007654035 0)
(0.052262148 0.00082248915 0)
(0.051803704 0.00087089497 0)
(0.051327985 0.00090921675 0)
(0.050841242 0.00093594339 0)
(0.050350224 0.00094961328 0)
(0.049862071 0.00094897108 0)
(0.049384151 0.00093311414 0)
(0.048923855 0.00090161616 0)
(0.04848836 0.0008546193 0)
(0.048084368 0.00079288636 0)
(0.047717863 0.00071781098 0)
(0.047393863 0.00063138231 0)
(0.047116231 0.00053610545 0)
(0.046887514 0.00043488561 0)
(0.046708851 0.00033088798 0)
(0.04657994 0.00022737593 0)
(0.046499073 0.00012753535 0)
(0.04646321 3.432232e-05 0)
(0.046468179 -4.9645995e-05 0)
(0.046508765 -0.0001222908 0)
(0.046579051 -0.00018215668 0)
(0.046672709 -0.00022843679 0)
(0.046783284 -0.00026095282 0)
(0.046904461 -0.00028009697 0)
(0.047030287 -0.00028674517 0)
(0.047155353 -0.00028215362 0)
(0.047274931 -0.00026784812 0)
(0.047385057 -0.00024551631 0)
(0.047482572 -0.00021690846 0)
(0.047565123 -0.00018375251 0)
(0.047631128 -0.000147685 0)
(0.04767972 -0.00011020055 0)
(0.047710667 -7.2619235e-05 0)
(0.04772429 -3.606619e-05 0)
(0.047721372 -1.4545722e-06 0)
(0.047703036 3.0515329e-05 0)
(0.047670684 5.9353017e-05 0)
(0.047625884 8.4756772e-05 0)
(0.047570298 0.00010659017 0)
(0.047505602 0.00012485539 0)
(0.047433434 0.00013966612 0)
(0.047355343 0.00015122001 0)
(0.047272767 0.00015977349 0)
(0.047187002 0.0001656183 0)
(0.047099204 0.00016906197 0)
(0.047010378 0.00017041142 0)
(0.046921387 0.00016996105 0)
(0.046832966 0.00016798416 0)
(0.046745729 0.00016472848 0)
(0.046660182 0.00016041437 0)
(0.046576744 0.0001552361 0)
(0.04649575 0.00014936455 0)
(0.04641747 0.00014295167 0)
(0.046342108 0.000136135 0)
(0.046269814 0.00012904258 0)
(0.046200687 0.00012179688 0)
(0.046134774 0.00011451817 0)
(0.046072069 0.00010732614 0)